/*--------------------------------*- C++ -*----------------------------------*\
  =========                 |
  \\      /  F ield         | OpenFOAM: The Open Source CFD Toolbox
   \\    /   O peration     | Website:  https://openfoam.org
    \\  /    A nd           | Version:  dev
     \\/     M anipulation  |
\*---------------------------------------------------------------------------*/
FoamFile
{
    version     2.0;
    format      ascii;
    class       surfaceScalarField;
    location    "15";
    object      phi;
}
// * * * * * * * * * * * * * * * * * * * * * * * * * * * * * * * * * * * * * //

dimensions      [1 0 -1 0 0 0 0];

internalField   nonuniform List<scalar> 
15760
(
7.59094e-07
0.00115786
-6.46184e-06
0.00116583
-1.62867e-05
0.00116843
0.00114696
-4.64957e-06
-3.19724e-06
0.00116106
-1.52085e-05
0.00117785
-3.54686e-05
0.00118869
0.00114631
-3.48119e-05
-5.16829e-06
0.00116623
-2.02508e-05
0.00119293
-4.7823e-05
0.00121626
0.00115844
-5.99535e-05
-2.54823e-06
0.00116877
-1.58613e-05
0.00120624
-4.41525e-05
0.00124455
0.00118711
-7.28244e-05
7.01988e-06
0.00116175
2.54339e-06
0.00121072
-1.6615e-05
0.00126371
0.00122862
-5.81232e-05
2.45621e-05
0.00113719
3.7001e-05
0.00119828
3.911e-05
0.0012616
0.00126691
8.13953e-07
4.87428e-05
0.00108845
8.63133e-05
0.00116071
0.000121691
0.00122623
0.00127138
0.000117226
7.52685e-05
0.00101318
0.000143497
0.00109248
0.000218436
0.00115129
0.00121171
0.0002781
9.71262e-05
0.000916055
0.00019254
0.000997066
0.000299163
0.00104466
0.00110009
0.000410783
0.000108734
0.000807321
0.000218496
0.000887305
0.000341041
0.00092212
0.000960206
0.000480929
0.000109682
0.000697639
0.000219136
0.00077785
0.000338854
0.000802403
0.000818312
0.000480749
0.000102912
0.000594727
0.000202316
0.000678446
0.00030617
0.000698549
0.000697168
0.000427313
9.23188e-05
0.000502409
0.000177933
0.000592832
0.00026314
0.000613342
0.000604432
0.000355876
7.9799e-05
0.00042261
0.000152035
0.000520597
0.000221944
0.000543433
0.000533334
0.000293042
6.40784e-05
0.000358531
0.000125013
0.000459662
0.000184142
0.000484305
0.000475575
0.000241901
4.61101e-05
0.000312421
9.72484e-05
0.000408524
0.000148847
0.000432706
0.000425461
0.000198961
3.08607e-05
0.00028156
7.29948e-05
0.00036639
0.000118264
0.000387437
0.000380956
0.000162769
2.16304e-05
0.00025993
5.60245e-05
0.000331996
9.49633e-05
0.000348498
0.000342254
0.000133666
1.75236e-05
0.000242406
4.58567e-05
0.000303663
7.85646e-05
0.00031579
0.000309616
0.000111202
1.58684e-05
0.000226538
3.9589e-05
0.000279942
6.67638e-05
0.000288615
0.000282536
9.38445e-05
1.47218e-05
0.000211816
3.48724e-05
0.000259792
5.75374e-05
0.00026595
0.00026007
8.00029e-05
1.34557e-05
0.00019836
3.07471e-05
0.0002425
4.98341e-05
0.000246863
0.000241311
6.85934e-05
1.20922e-05
0.000186268
2.70146e-05
0.000227578
4.32141e-05
0.000230664
0.000225541
5.89839e-05
1.07423e-05
0.000175525
2.36529e-05
0.000214667
3.7459e-05
0.000216858
0.000212214
5.07866e-05
9.46416e-06
0.000166061
2.06363e-05
0.000203495
3.24213e-05
0.000205073
0.000200908
4.37272e-05
8.27934e-06
0.000157782
1.79295e-05
0.000193845
2.79874e-05
0.000195015
0.000191299
3.75967e-05
7.19315e-06
0.000150589
1.54986e-05
0.00018554
2.40659e-05
0.000186447
0.000183134
3.22306e-05
6.20289e-06
0.000144386
1.33116e-05
0.000178431
2.05815e-05
0.000179178
0.000176217
2.74988e-05
5.30202e-06
0.000139084
1.13398e-05
0.000172393
1.7471e-05
0.000173046
0.00017039
2.32977e-05
4.48152e-06
0.000134602
9.55618e-06
0.000167319
1.46809e-05
0.000167922
0.000165526
1.95445e-05
3.73467e-06
0.000130868
7.94025e-06
0.000163113
1.21693e-05
0.000163693
0.000161521
1.61744e-05
3.04426e-06
0.000127823
6.46591e-06
0.000159691
9.89695e-06
0.000160262
0.000158285
1.31336e-05
2.41888e-06
0.000125405
5.13364e-06
0.000156977
7.84526e-06
0.00015755
0.000155744
1.03858e-05
1.85601e-06
0.000123549
3.93557e-06
0.000154897
5.99661e-06
0.000155489
0.000153841
7.89985e-06
1.33885e-06
0.00012221
2.84172e-06
0.000153394
4.31202e-06
0.000154019
0.000152519
5.63346e-06
8.58091e-07
0.000121352
1.83209e-06
0.00015242
2.76411e-06
0.000153087
0.000151727
3.55678e-06
4.16201e-07
0.000120935
9.05586e-07
0.000151931
1.34751e-06
0.000152645
0.000151414
1.65995e-06
1.4455e-08
0.000120921
6.12506e-08
0.000151884
5.91716e-08
0.000152647
0.000151537
-6.35048e-08
-3.51407e-07
0.000121272
-7.04333e-07
0.000152237
-1.10589e-06
0.000153048
0.000152052
-1.6211e-06
-6.75315e-07
0.000121948
-1.38644e-06
0.000152948
-2.14819e-06
0.00015381
0.000152922
-3.01808e-06
-9.6525e-07
0.000122913
-1.99556e-06
0.000153978
-3.07796e-06
0.000154892
0.000154108
-4.2638e-06
-1.22355e-06
0.000124136
-2.53685e-06
0.000155292
-3.90302e-06
0.000156259
0.000155573
-5.36826e-06
-1.45131e-06
0.000125588
-3.01308e-06
0.000156853
-4.62813e-06
0.000157874
0.000157283
-6.33806e-06
-1.64974e-06
0.000127237
-3.42713e-06
0.000158631
-5.25786e-06
0.000159704
0.000159204
-7.17918e-06
-1.8201e-06
0.000129057
-3.78193e-06
0.000160593
-5.79667e-06
0.000161719
0.000161305
-7.89747e-06
-1.96365e-06
0.000131021
-4.08033e-06
0.000162709
-6.2489e-06
0.000163888
0.000163555
-8.49883e-06
-2.08176e-06
0.000133103
-4.32523e-06
0.000164953
-6.61915e-06
0.000166182
0.000165926
-8.98965e-06
-2.17591e-06
0.000135279
-4.51979e-06
0.000167297
-6.91245e-06
0.000168574
0.00016839
-9.37671e-06
-2.24763e-06
0.000137526
-4.66739e-06
0.000169716
-7.13404e-06
0.000171041
0.000170923
-9.66709e-06
-2.29851e-06
0.000139825
-4.77152e-06
0.000172189
-7.28921e-06
0.000173559
0.000173502
-9.86802e-06
-2.33018e-06
0.000142155
-4.8357e-06
0.000174695
-7.38338e-06
0.000176106
0.000176105
-9.98685e-06
-2.34434e-06
0.000144499
-4.86344e-06
0.000177214
-7.422e-06
0.000178665
0.000178714
-1.0031e-05
-2.34264e-06
0.000146842
-4.85825e-06
0.00017973
-7.41049e-06
0.000181217
0.000181312
-1.00078e-05
-2.32675e-06
0.000149169
-4.82364e-06
0.000182227
-7.3543e-06
0.000183748
0.000183882
-9.92481e-06
-2.29831e-06
0.000151467
-4.76312e-06
0.000184691
-7.25882e-06
0.000186243
0.000186412
-9.78927e-06
-2.25892e-06
0.000153726
-4.68003e-06
0.000187112
-7.12915e-06
0.000188693
0.000188891
-9.60814e-06
-2.21014e-06
0.000155936
-4.57757e-06
0.00018948
-6.9702e-06
0.000191085
0.000191309
-9.38806e-06
-2.15342e-06
0.00015809
-4.4588e-06
0.000191785
-6.78663e-06
0.000193413
0.000193658
-9.13534e-06
-2.09013e-06
0.00016018
-4.32654e-06
0.000194022
-6.58278e-06
0.000195669
0.000195931
-8.85588e-06
-2.02156e-06
0.000162201
-4.18345e-06
0.000196184
-6.36273e-06
0.000197849
0.000198124
-8.55514e-06
-1.94886e-06
0.00016415
-4.03197e-06
0.000198267
-6.13017e-06
0.000199947
0.000200231
-8.23812e-06
-1.87312e-06
0.000166023
-3.87433e-06
0.000200268
-5.88849e-06
0.000201961
0.000202252
-7.90934e-06
-1.79531e-06
0.000167818
-3.71251e-06
0.000202185
-5.64071e-06
0.000203889
0.000204184
-7.57288e-06
-1.71628e-06
0.000169535
-3.54831e-06
0.000204017
-5.38953e-06
0.00020573
0.000206027
-7.23234e-06
-1.63679e-06
0.000171172
-3.38327e-06
0.000205764
-5.13732e-06
0.000207484
0.000207781
-6.8909e-06
-1.55751e-06
0.000172729
-3.21878e-06
0.000207425
-4.88617e-06
0.000209152
0.000209446
-6.55127e-06
-1.47902e-06
0.000174208
-3.056e-06
0.000209002
-4.63781e-06
0.000210734
0.000211024
-6.21581e-06
-1.40179e-06
0.00017561
-2.89593e-06
0.000210496
-4.39376e-06
0.000212231
0.000212517
-5.8865e-06
-1.32624e-06
0.000176936
-2.73939e-06
0.000211909
-4.15526e-06
0.000213647
0.000213926
-5.56498e-06
-1.25268e-06
0.000178189
-2.58707e-06
0.000213243
-3.92332e-06
0.000214984
0.000215256
-5.25258e-06
-1.1814e-06
0.00017937
-2.43951e-06
0.000214502
-3.69875e-06
0.000216243
0.000216507
-4.95034e-06
-1.11259e-06
0.000180483
-2.29714e-06
0.000215686
-3.48217e-06
0.000217428
0.000217684
-4.65908e-06
-1.04642e-06
0.000181529
-2.16026e-06
0.0002168
-3.27405e-06
0.000218542
0.00021879
-4.37938e-06
-9.82996e-07
0.000182512
-2.0291e-06
0.000217846
-3.07471e-06
0.000219587
0.000219826
-4.11164e-06
-9.22379e-07
0.000183434
-1.90378e-06
0.000218827
-2.88433e-06
0.000220568
0.000220798
-3.85609e-06
-8.64608e-07
0.000184299
-1.78439e-06
0.000219747
-2.70299e-06
0.000221486
0.000221708
-3.61281e-06
-8.09693e-07
0.000185109
-1.67091e-06
0.000220608
-2.53071e-06
0.000222346
0.000222559
-3.38178e-06
-7.57605e-07
0.000185866
-1.56328e-06
0.000221414
-2.36739e-06
0.00022315
0.000223355
-3.16288e-06
-7.08303e-07
0.000186575
-1.46144e-06
0.000222167
-2.21289e-06
0.000223902
0.000224098
-2.95589e-06
-6.61723e-07
0.000187236
-1.36526e-06
0.000222871
-2.06701e-06
0.000224603
0.000224791
-2.76052e-06
-6.17809e-07
0.000187854
-1.27459e-06
0.000223528
-1.92951e-06
0.000225258
0.000225438
-2.57645e-06
-5.76463e-07
0.000188431
-1.18925e-06
0.00022414
-1.80013e-06
0.000225869
0.000226041
-2.40331e-06
-5.37606e-07
0.000188968
-1.10905e-06
0.000224712
-1.67857e-06
0.000226439
0.000226603
-2.24069e-06
-5.01141e-07
0.000189469
-1.03379e-06
0.000225244
-1.56453e-06
0.000226969
0.000227127
-2.08818e-06
-4.66962e-07
0.000189936
-9.63271e-07
0.000225741
-1.45769e-06
0.000227464
0.000227615
-1.94532e-06
-4.34974e-07
0.000190371
-8.97275e-07
0.000226203
-1.35771e-06
0.000227924
0.000228069
-1.81169e-06
-4.05071e-07
0.000190776
-8.35591e-07
0.000226634
-1.26428e-06
0.000228353
0.000228491
-1.68683e-06
-3.77149e-07
0.000191153
-7.77999e-07
0.000227034
-1.17707e-06
0.000228752
0.000228884
-1.5703e-06
-3.51112e-07
0.000191505
-7.2429e-07
0.000227408
-1.09576e-06
0.000229124
0.00022925
-1.46169e-06
-3.26851e-07
0.000191831
-6.74272e-07
0.000227755
-1.02003e-06
0.000229469
0.000229591
-1.36055e-06
-3.04279e-07
0.000192136
-6.2773e-07
0.000228078
-9.49582e-07
0.000229791
0.000229908
-1.26648e-06
-2.83305e-07
0.000192419
-5.84476e-07
0.00022838
-8.84121e-07
0.000230091
0.000230203
-1.17909e-06
-2.63826e-07
0.000192683
-5.44329e-07
0.00022866
-8.23366e-07
0.00023037
0.000230477
-1.09799e-06
-2.45765e-07
0.000192929
-5.0711e-07
0.000228922
-7.67048e-07
0.00023063
0.000230733
-1.02282e-06
-2.29044e-07
0.000193158
-4.72649e-07
0.000229165
-7.14906e-07
0.000230872
0.000230971
-9.53238e-07
-2.13581e-07
0.000193371
-4.40787e-07
0.000229392
-6.66697e-07
0.000231098
0.000231194
-8.88909e-07
-1.993e-07
0.00019357
-4.11367e-07
0.000229604
-6.22191e-07
0.000231309
0.000231401
-8.29531e-07
-1.86135e-07
0.000193757
-3.8425e-07
0.000229802
-5.81173e-07
0.000231506
0.000231595
-7.74811e-07
-1.74025e-07
0.000193931
-3.59304e-07
0.000229988
-5.43437e-07
0.00023169
0.000231776
-7.24473e-07
-1.62901e-07
0.000194094
-3.364e-07
0.000230161
-5.08796e-07
0.000231862
0.000231945
-6.78265e-07
-1.52713e-07
0.000194246
-3.15421e-07
0.000230324
-4.77068e-07
0.000232024
0.000232104
-6.35954e-07
-1.43403e-07
0.00019439
-2.96261e-07
0.000230477
-4.48095e-07
0.000232176
0.000232253
-5.97318e-07
-1.34924e-07
0.000194525
-2.78824e-07
0.000230621
-4.21723e-07
0.000232319
0.000232394
-5.62151e-07
-1.27241e-07
0.000194652
-2.63012e-07
0.000230757
-3.97813e-07
0.000232453
0.000232526
-5.3027e-07
-1.20297e-07
0.000194772
-2.48747e-07
0.000230885
-3.76242e-07
0.000232581
0.000232651
-5.01499e-07
-1.1407e-07
0.000194886
-2.35944e-07
0.000231007
-3.56887e-07
0.000232702
0.00023277
-4.75695e-07
-1.08517e-07
0.000194995
-2.24543e-07
0.000231123
-3.39644e-07
0.000232817
0.000232883
-4.52709e-07
-1.03605e-07
0.000195098
-2.14479e-07
0.000231234
-3.24425e-07
0.000232927
0.000232991
-4.32413e-07
-9.93243e-08
0.000195198
-2.05694e-07
0.00023134
-3.11144e-07
0.000233032
0.000233095
-4.14707e-07
-9.56379e-08
0.000195293
-1.98144e-07
0.000231443
-2.99732e-07
0.000233134
0.000233195
-3.99493e-07
-9.253e-08
0.000195386
-1.91786e-07
0.000231542
-2.90126e-07
0.000233232
0.000233291
-3.86684e-07
-8.99797e-08
0.000195476
-1.86593e-07
0.000231638
-2.82275e-07
0.000233328
0.000233385
-3.76209e-07
-8.79782e-08
0.000195564
-1.82531e-07
0.000231733
-2.76135e-07
0.000233422
0.000233477
-3.68022e-07
-8.65114e-08
0.00019565
-1.79587e-07
0.000231826
-2.71676e-07
0.000233514
0.000233567
-3.62077e-07
-8.55799e-08
0.000195736
-1.77738e-07
0.000231918
-2.68883e-07
0.000233605
0.000233657
-3.58347e-07
-8.51769e-08
0.000195821
-1.76984e-07
0.00023201
-2.6774e-07
0.000233696
0.000233746
-3.56816e-07
-8.5301e-08
0.000195906
-1.7732e-07
0.000232102
-2.68249e-07
0.000233786
0.000233835
-3.57483e-07
-8.59482e-08
0.000195992
-1.78752e-07
0.000232195
-2.70409e-07
0.000233878
0.000233925
-3.60357e-07
-8.71367e-08
0.000196079
-1.81287e-07
0.000232289
-2.74238e-07
0.000233971
0.000234016
-3.65457e-07
-8.88521e-08
0.000196168
-1.84951e-07
0.000232385
-2.79776e-07
0.000234066
0.000234109
-3.72816e-07
-9.11328e-08
0.000196259
-1.89758e-07
0.000232484
-2.87047e-07
0.000234163
0.000234205
-3.82498e-07
-9.3985e-08
0.000196353
-1.95754e-07
0.000232586
-2.96108e-07
0.000234264
0.000234303
-3.94561e-07
-9.74228e-08
0.000196451
-2.02982e-07
0.000232691
-3.07017e-07
0.000234368
0.000234405
-4.09089e-07
-1.01477e-07
0.000196552
-2.11476e-07
0.000232801
-3.19857e-07
0.000234476
0.000234512
-4.26175e-07
-1.06172e-07
0.000196658
-2.21297e-07
0.000232916
-3.34697e-07
0.000234589
0.000234623
-4.45932e-07
-1.11532e-07
0.00019677
-2.32514e-07
0.000233037
-3.51642e-07
0.000234708
0.00023474
-4.68498e-07
-1.17605e-07
0.000196887
-2.45198e-07
0.000233165
-3.70811e-07
0.000234834
0.000234863
-4.9401e-07
-1.24416e-07
0.000197012
-2.5944e-07
0.0002333
-3.9232e-07
0.000234967
0.000234993
-5.22646e-07
-1.32026e-07
0.000197144
-2.75322e-07
0.000233443
-4.16318e-07
0.000235108
0.000235131
-5.54591e-07
-1.40478e-07
0.000197284
-2.92958e-07
0.000233596
-4.42959e-07
0.000235258
0.000235279
-5.90053e-07
-1.49826e-07
0.000197434
-3.12466e-07
0.000233758
-4.72419e-07
0.000235418
0.000235435
-6.29271e-07
-1.60141e-07
0.000197594
-3.33972e-07
0.000233932
-5.04901e-07
0.000235589
0.000235603
-6.72499e-07
-1.71479e-07
0.000197766
-3.57619e-07
0.000234118
-5.40604e-07
0.000235772
0.000235782
-7.20037e-07
-1.8393e-07
0.00019795
-3.8356e-07
0.000234318
-5.79795e-07
0.000235968
0.000235975
-7.7218e-07
-1.97576e-07
0.000198147
-4.11983e-07
0.000234532
-6.22701e-07
0.000236179
0.000236181
-8.29286e-07
-2.12505e-07
0.00019836
-4.43066e-07
0.000234763
-6.69637e-07
0.000236405
0.000236404
-8.91741e-07
-2.28818e-07
0.000198588
-4.77026e-07
0.000235011
-7.20907e-07
0.000236649
0.000236643
-9.59966e-07
-2.4663e-07
0.000198835
-5.14099e-07
0.000235278
-7.76864e-07
0.000236912
0.0002369
-1.03442e-06
-2.66056e-07
0.000199101
-5.54533e-07
0.000235567
-8.37897e-07
0.000237195
0.000237178
-1.11561e-06
-2.87243e-07
0.000199388
-5.98608e-07
0.000235878
-9.04416e-07
0.000237501
0.000237478
-1.20411e-06
-3.10331e-07
0.000199699
-6.46636e-07
0.000236215
-9.76886e-07
0.000237831
0.000237801
-1.3005e-06
-3.35492e-07
0.000200034
-6.98948e-07
0.000236578
-1.05581e-06
0.000238188
0.000238151
-1.40547e-06
-3.62903e-07
0.000200397
-7.55916e-07
0.000236971
-1.14175e-06
0.000238574
0.000238529
-1.51974e-06
-3.92763e-07
0.00020079
-8.17945e-07
0.000237396
-1.2353e-06
0.000238991
0.000238938
-1.64414e-06
-4.2528e-07
0.000201215
-8.85478e-07
0.000237856
-1.33715e-06
0.000239443
0.00023938
-1.77953e-06
-4.60697e-07
0.000201676
-9.59014e-07
0.000238355
-1.44802e-06
0.000239932
0.000239859
-1.92691e-06
-4.99285e-07
0.000202175
-1.0391e-06
0.000238894
-1.56873e-06
0.000240462
0.000240377
-2.08733e-06
-5.41336e-07
0.000202716
-1.12631e-06
0.000239479
-1.70017e-06
0.000241036
0.000240939
-2.26198e-06
-5.87164e-07
0.000203303
-1.22133e-06
0.000240114
-1.84332e-06
0.000241658
0.000241548
-2.45216e-06
-6.37122e-07
0.000203941
-1.32487e-06
0.000240801
-1.99929e-06
0.000242332
0.000242208
-2.6593e-06
-6.91618e-07
0.000204632
-1.43774e-06
0.000241547
-2.16925e-06
0.000243064
0.000242924
-2.88499e-06
-7.51078e-07
0.000205383
-1.56083e-06
0.000242357
-2.35455e-06
0.000243857
0.0002437
-3.13098e-06
-8.15996e-07
0.000206199
-1.69513e-06
0.000243236
-2.55665e-06
0.000244719
0.000244543
-3.3992e-06
-8.86906e-07
0.000207086
-1.84173e-06
0.000244191
-2.77719e-06
0.000245654
0.000245457
-3.69182e-06
-9.64418e-07
0.000208051
-2.00187e-06
0.000245229
-3.018e-06
0.00024667
0.000246451
-4.01121e-06
-1.0492e-06
0.0002091
-2.1769e-06
0.000246356
-3.28108e-06
0.000247775
0.00024753
-4.36004e-06
-1.14202e-06
0.000210242
-2.36834e-06
0.000247583
-3.56873e-06
0.000248975
0.000248702
-4.74128e-06
-1.24372e-06
0.000211485
-2.57792e-06
0.000248917
-3.88344e-06
0.00025028
0.000249977
-5.15822e-06
-1.35525e-06
0.000212841
-2.80753e-06
0.000250369
-4.22806e-06
0.000251701
0.000251363
-5.6146e-06
-1.47768e-06
0.000214318
-3.05933e-06
0.000251951
-4.60578e-06
0.000253247
0.000252872
-6.11454e-06
-1.61223e-06
0.000215931
-3.33574e-06
0.000253674
-5.02016e-06
0.000254932
0.000254515
-6.66276e-06
-1.76026e-06
0.000217691
-3.63951e-06
0.000255554
-5.47527e-06
0.000256768
0.000256304
-7.2645e-06
-1.92335e-06
0.000219614
-3.97376e-06
0.000257604
-5.97567e-06
0.00025877
0.000258254
-7.92575e-06
-2.10327e-06
0.000221717
-4.34202e-06
0.000259843
-6.52657e-06
0.000260954
0.000260381
-8.65326e-06
-2.30209e-06
0.00022402
-4.74833e-06
0.000262289
-7.13392e-06
0.00026334
0.000262702
-9.45471e-06
-2.52214e-06
0.000226542
-5.19734e-06
0.000264964
-7.80448e-06
0.000265947
0.000265236
-1.03389e-05
-2.7661e-06
0.000229308
-5.69434e-06
0.000267892
-8.54599e-06
0.000268798
0.000268006
-1.13158e-05
-3.03712e-06
0.000232345
-6.24545e-06
0.000271101
-9.3674e-06
0.00027192
0.000271035
-1.2397e-05
-3.3388e-06
0.000235684
-6.85774e-06
0.00027462
-1.0279e-05
0.000275342
0.000274352
-1.35957e-05
-3.67538e-06
0.000239359
-7.53946e-06
0.000278484
-1.12927e-05
0.000279095
0.000277987
-1.49272e-05
-4.0518e-06
0.000243411
-8.30022e-06
0.000282732
-1.24226e-05
0.000283217
0.000281974
-1.64096e-05
-4.47386e-06
0.000247885
-9.15128e-06
0.00028741
-1.36848e-05
0.000287751
0.000286352
-1.80634e-05
-4.94845e-06
0.000252833
-1.0106e-05
0.000292567
-1.50985e-05
0.000292743
0.000291167
-1.99133e-05
-5.48373e-06
0.000258317
-1.11799e-05
0.000298263
-1.66865e-05
0.00029825
0.000296468
-2.19879e-05
-6.08945e-06
0.000264406
-1.2392e-05
0.000304566
-1.84755e-05
0.000304333
0.000302314
-2.43212e-05
-6.77736e-06
0.000271184
-1.37646e-05
0.000311553
-2.04977e-05
0.000311067
0.00030877
-2.69538e-05
-7.5616e-06
0.000278745
-1.53247e-05
0.000319316
-2.27917e-05
0.000318534
0.000315913
-2.99343e-05
-8.45945e-06
0.000287205
-1.71052e-05
0.000327962
-2.54041e-05
0.000326832
0.00032383
-3.3321e-05
-9.49199e-06
0.000296697
-1.91463e-05
0.000337616
-2.8392e-05
0.000336078
0.000332622
-3.71848e-05
-1.06855e-05
0.000307382
-2.14973e-05
0.000348428
-3.18252e-05
0.000346406
0.00034241
-4.16123e-05
-1.20717e-05
0.000319454
-2.42197e-05
0.000360576
-3.57902e-05
0.000357977
0.000353329
-4.671e-05
-1.36938e-05
0.000333148
-2.73905e-05
0.000374273
-4.03947e-05
0.000370981
0.000365545
-5.26099e-05
-1.55977e-05
0.000348745
-3.11067e-05
0.000389782
-4.5775e-05
0.000385649
0.000379246
-5.94767e-05
-1.78648e-05
0.00036661
-3.54942e-05
0.000407411
-5.21032e-05
0.000402258
0.000394663
-6.75196e-05
-2.05485e-05
0.000387159
-4.07131e-05
0.000427576
-5.96036e-05
0.000421149
0.000412061
-7.70015e-05
-2.38255e-05
0.000410984
-4.69761e-05
0.000450726
-6.85628e-05
0.000442735
0.000431766
-8.82681e-05
-2.77446e-05
0.000438729
-5.4567e-05
0.000477549
-7.93678e-05
0.000467536
0.000454154
-0.000101756
-3.2654e-05
0.000471383
-6.38588e-05
0.000508753
-9.25219e-05
0.000496199
0.00047969
-0.000118058
-3.86659e-05
0.000510049
-7.53879e-05
0.000545475
-0.000108726
0.000529537
0.000508904
-0.000137939
-4.6363e-05
0.000556412
-8.98642e-05
0.000588977
-0.00012892
0.000568593
0.000542444
-0.00016246
-5.61331e-05
0.000612545
-0.000108349
0.000641192
-0.000154452
0.000614696
0.000581023
-0.000193031
-6.89561e-05
0.000681501
-0.00013231
0.000704546
-0.000187205
0.000669591
0.000625466
-0.000231648
-8.60449e-05
0.000767546
-0.000164054
0.000782555
-0.000229939
0.000735476
0.000676575
-0.000281048
-0.000108921
0.000876467
-0.000206676
0.00088031
-0.000286786
0.000815586
0.000735054
-0.000345265
-0.000141556
0.00101802
-0.000265858
0.00100461
-0.000363732
0.00091346
0.000801084
-0.000429763
-0.000185232
0.00120325
-0.000347763
0.00116714
-0.000471403
0.0010371
0.000873829
-0.000544148
-0.000246529
0.00144978
-0.000464487
0.0013851
-0.000622322
0.00119494
0.00095009
-0.000698582
-0.000349654
0.00179944
-0.000639743
0.00167519
-0.0008531
0.00140829
0.00102806
-0.000931068
-0.000403414
0.00220285
-0.000809026
0.0020808
-0.0011493
0.00174857
0.00112529
-0.00124653
-0.000771878
-0.00141092
-0.00179285
-0.00196134
0.000117693
-0.000122343
0.000252259
-0.000169378
0.000399964
-0.000207658
0.000548648
-0.000221509
0.00068489
-0.000194365
0.000813907
-0.000128204
0.000934151
-3.01708e-06
0.000992913
0.000219338
0.000964155
0.000439539
0.000879079
0.000566004
0.000765831
0.000593997
0.000653233
0.000539911
0.000563676
0.000445434
0.000496421
0.000360298
0.00044268
0.000295642
0.000396739
0.000244903
0.000356485
0.000203023
0.000321801
0.00016835
0.000292611
0.000140393
0.000268328
0.000118128
0.000248127
0.000100204
0.000231223
8.54972e-05
0.000216973
7.32345e-05
0.000204882
6.28774e-05
0.000194581
5.40281e-05
0.000185792
4.6386e-05
0.000178301
3.97215e-05
0.000171942
3.3858e-05
0.000166581
2.86584e-05
0.00016211
2.4015e-05
0.000158441
1.98436e-05
0.000155497
1.60777e-05
0.000153216
1.26674e-05
0.000151545
9.57012e-06
0.000150435
6.74327e-06
0.000149836
4.15635e-06
0.000149701
1.79507e-06
0.000149988
-3.51252e-07
0.000150659
-2.29202e-06
0.000151677
-4.03563e-06
0.000153004
-5.5909e-06
0.000154604
-6.96864e-06
0.000156443
-8.17709e-06
0.000158488
-9.22339e-06
0.000160705
-1.01148e-05
0.000163065
-1.08588e-05
0.000165539
-1.14635e-05
0.0001681
-1.19375e-05
0.000170722
-1.22896e-05
0.000173383
-1.2529e-05
0.000176061
-1.2665e-05
0.000178737
-1.27072e-05
0.000181395
-1.2665e-05
0.000184018
-1.2548e-05
0.000186594
-1.23655e-05
0.000189112
-1.21262e-05
0.000191563
-1.18387e-05
0.000193938
-1.1511e-05
0.000196233
-1.11504e-05
0.000198442
-1.0764e-05
0.000200562
-1.03579e-05
0.00020259
-9.93799e-06
0.000204527
-9.50923e-06
0.00020637
-9.07615e-06
0.000208122
-8.6427e-06
0.000209783
-8.21225e-06
0.000211355
-7.78771e-06
0.00021284
-7.37151e-06
0.000214241
-6.96563e-06
0.00021556
-6.5717e-06
0.000216801
-6.19097e-06
0.000217966
-5.82442e-06
0.000219059
-5.47273e-06
0.000220084
-5.13634e-06
0.000221043
-4.81551e-06
0.000221941
-4.51031e-06
0.00022278
-4.22067e-06
0.000223563
-3.94639e-06
0.000224295
-3.68718e-06
0.000224977
-3.44266e-06
0.000225613
-3.21239e-06
0.000226205
-2.99588e-06
0.000226757
-2.79263e-06
0.000227271
-2.60206e-06
0.000227749
-2.42364e-06
0.000228194
-2.25679e-06
0.000228609
-2.10094e-06
0.000228994
-1.95555e-06
0.000229352
-1.82006e-06
0.000229686
-1.69392e-06
0.000229996
-1.57663e-06
0.000230284
-1.46769e-06
0.000230553
-1.36661e-06
0.000230803
-1.27294e-06
0.000231036
-1.18624e-06
0.000231253
-1.10611e-06
0.000231456
-1.03215e-06
0.000231645
-9.64001e-07
0.000231822
-9.01316e-07
0.000231987
-8.43787e-07
0.000232143
-7.91111e-07
0.000232288
-7.43013e-07
0.000232425
-6.99237e-07
0.000232555
-6.59556e-07
0.000232677
-6.23755e-07
0.000232793
-5.91632e-07
0.000232903
-5.63025e-07
0.000233008
-5.37777e-07
0.00023311
-5.15743e-07
0.000233207
-4.96801e-07
0.000233301
-4.80861e-07
0.000233393
-4.67833e-07
0.000233482
-4.57639e-07
0.00023357
-4.50239e-07
0.000233658
-4.45592e-07
0.000233745
-4.43679e-07
0.000233832
-4.44499e-07
0.000233919
-4.48061e-07
0.000234008
-4.54387e-07
0.000234099
-4.63533e-07
0.000234192
-4.75555e-07
0.000234288
-4.90538e-07
0.000234387
-5.08581e-07
0.000234491
-5.29807e-07
0.000234599
-5.54354e-07
0.000234713
-5.82386e-07
0.000234833
-6.14088e-07
0.00023496
-6.4966e-07
0.000235095
-6.89347e-07
0.000235239
-7.33403e-07
0.000235391
-7.8212e-07
0.000235555
-8.35813e-07
0.00023573
-8.94848e-07
0.000235917
-9.59613e-07
0.000236118
-1.03054e-06
0.000236335
-1.10809e-06
0.000236567
-1.19281e-06
0.000236818
-1.28526e-06
0.000237089
-1.38607e-06
0.000237381
-1.49592e-06
0.000237696
-1.61557e-06
0.000238036
-1.74585e-06
0.000238404
-1.88766e-06
0.000238802
-2.04201e-06
0.000239232
-2.20998e-06
0.000239698
-2.39279e-06
0.000240202
-2.59174e-06
0.000240749
-2.80831e-06
0.000241341
-3.04408e-06
0.000241982
-3.30082e-06
0.000242678
-3.58048e-06
0.000243432
-3.88522e-06
0.00024425
-4.21742e-06
0.000245138
-4.57971e-06
0.000246102
-4.97504e-06
0.000247149
-5.40664e-06
0.000248285
-5.87815e-06
0.000249521
-6.39363e-06
0.000250864
-6.95758e-06
0.000252324
-7.57509e-06
0.000253913
-8.25184e-06
0.000255643
-8.99425e-06
0.000257527
-9.80955e-06
0.00025958
-1.07059e-05
0.000261818
-1.16927e-05
0.000264259
-1.27804e-05
0.000266924
-1.39811e-05
0.000269836
-1.53087e-05
0.00027302
-1.6779e-05
0.000276503
-1.84105e-05
0.000280318
-2.02243e-05
0.000284499
-2.22452e-05
0.000289088
-2.45021e-05
0.000294129
-2.70289e-05
0.000299674
-2.98656e-05
0.000305779
-3.30595e-05
0.000312512
-3.66671e-05
0.000319947
-4.0756e-05
0.00032817
-4.54077e-05
0.000337279
-5.07211e-05
0.000347385
-5.68168e-05
0.000358618
-6.3843e-05
0.000371125
-7.19836e-05
0.000385073
-8.1467e-05
0.000400653
-9.25824e-05
0.000418077
-0.000105692
0.000437589
-0.000121267
0.00045943
-0.0001399
0.000483874
-0.000162383
0.000511138
-0.000189725
0.000541394
-0.000223287
0.000574594
-0.000264848
0.000610357
-0.000316811
0.000647464
-0.000382371
0.000683504
-0.000465803
0.000712223
-0.000572867
0.000724099
-0.000710458
0.000681739
-0.000888709
0.000542785
-0.00110758
-0.00141855
9.15451e-05
-0.000213888
0.000194185
-0.000272018
0.000306749
-0.000320222
0.000423083
-0.000337844
0.000531436
-0.000302718
0.000611526
-0.000208294
0.00067007
-6.15594e-05
0.000716542
0.000172866
0.000717892
0.000438189
0.000682467
0.000601429
0.000623971
0.000652492
0.000550683
0.0006132
0.000484905
0.000511213
0.000432971
0.000412233
0.000389762
0.000338851
0.00035235
0.000282315
0.000319948
0.000235425
0.000292353
0.000195945
0.000269055
0.000163691
0.000249384
0.000137799
0.000232709
0.000116878
0.000218493
9.97135e-05
0.000206306
8.54213e-05
0.000195823
7.33607e-05
0.000186794
6.30576e-05
0.000179024
5.41556e-05
0.000172361
4.63841e-05
0.000166683
3.95364e-05
0.000161889
3.34522e-05
0.000157897
2.80068e-05
0.000154638
2.31031e-05
0.000152051
1.8665e-05
0.000150085
1.46328e-05
0.000148698
1.09576e-05
0.000147844
7.5971e-06
0.000147479
4.52141e-06
0.000147562
1.71252e-06
0.000148054
-8.43856e-07
0.00014892
-3.1575e-06
0.000150122
-5.23805e-06
0.000151626
-7.09504e-06
0.000153396
-8.73854e-06
0.000155397
-1.01781e-05
0.000157596
-1.14221e-05
0.00015996
-1.2479e-05
0.000162459
-1.33577e-05
0.000165063
-1.4068e-05
0.000167746
-1.46201e-05
0.000170481
-1.50247e-05
0.000173245
-1.52932e-05
0.000176017
-1.5437e-05
0.000178778
-1.54677e-05
0.00018151
-1.53972e-05
0.000184199
-1.52371e-05
0.000186832
-1.49987e-05
0.000189399
-1.46928e-05
0.00019189
-1.43299e-05
0.000194299
-1.39196e-05
0.000196619
-1.34711e-05
0.000198848
-1.29926e-05
0.000200982
-1.24919e-05
0.000203019
-1.19756e-05
0.00020496
-1.14501e-05
0.000206805
-1.09205e-05
0.000208554
-1.03916e-05
0.000210209
-9.86742e-06
0.000211772
-9.35134e-06
0.000213247
-8.8462e-06
0.000214636
-8.35433e-06
0.000215942
-7.87758e-06
0.000217168
-7.41741e-06
0.000218318
-6.97488e-06
0.000219396
-6.55073e-06
0.000220406
-6.14544e-06
0.000221349
-5.75926e-06
0.000222231
-5.39219e-06
0.000223055
-5.04413e-06
0.000223823
-4.71476e-06
0.00022454
-4.4037e-06
0.000225207
-4.11046e-06
0.000225829
-3.83447e-06
0.000226409
-3.57513e-06
0.000226948
-3.33177e-06
0.000227449
-3.10372e-06
0.000227916
-2.8903e-06
0.00022835
-2.6908e-06
0.000228754
-2.50453e-06
0.000229129
-2.33082e-06
0.000229478
-2.16897e-06
0.000229802
-2.01836e-06
0.000230104
-1.87835e-06
0.000230385
-1.74834e-06
0.000230646
-1.62773e-06
0.000230889
-1.516e-06
0.000231115
-1.4126e-06
0.000231326
-1.31705e-06
0.000231523
-1.22888e-06
0.000231707
-1.14765e-06
0.000231878
-1.07295e-06
0.000232039
-1.00439e-06
0.000232189
-9.41626e-07
0.000232331
-8.84324e-07
0.000232464
-8.32179e-07
0.000232589
-7.84914e-07
0.000232707
-7.42268e-07
0.00023282
-7.04018e-07
0.000232927
-6.6995e-07
0.000233029
-6.39877e-07
0.000233127
-6.13638e-07
0.000233221
-5.91089e-07
0.000233312
-5.72101e-07
0.000233401
-5.5658e-07
0.000233488
-5.4444e-07
0.000233573
-5.35618e-07
0.000233658
-5.30072e-07
0.000233742
-5.27788e-07
0.000233826
-5.28748e-07
0.000233911
-5.3297e-07
0.000233997
-5.40489e-07
0.000234085
-5.51347e-07
0.000234175
-5.65636e-07
0.000234268
-5.83445e-07
0.000234364
-6.04894e-07
0.000234464
-6.30125e-07
0.000234569
-6.59299e-07
0.00023468
-6.92614e-07
0.000234796
-7.30287e-07
0.000234919
-7.72574e-07
0.000235049
-8.19742e-07
0.000235188
-8.721e-07
0.000235336
-9.29991e-07
0.000235494
-9.93805e-07
0.000235663
-1.06396e-06
0.000235844
-1.14091e-06
0.000236039
-1.22518e-06
0.000236248
-1.31733e-06
0.000236473
-1.41797e-06
0.000236716
-1.52778e-06
0.000236977
-1.64751e-06
0.000237259
-1.77797e-06
0.000237564
-1.92005e-06
0.000237893
-2.07474e-06
0.000238248
-2.2431e-06
0.000238632
-2.4263e-06
0.000239048
-2.62566e-06
0.000239498
-2.84257e-06
0.000239985
-3.07862e-06
0.000240512
-3.33549e-06
0.000241083
-3.61509e-06
0.000241701
-3.91949e-06
0.000242372
-4.25099e-06
0.000243099
-4.6121e-06
0.000243887
-5.00563e-06
0.000244742
-5.43467e-06
0.00024567
-5.90265e-06
0.000246676
-6.41341e-06
0.000247769
-6.97115e-06
0.000248956
-7.58062e-06
0.000250246
-8.24707e-06
0.000251647
-8.97643e-06
0.000253171
-9.77529e-06
0.000254827
-1.06511e-05
0.00025663
-1.16123e-05
0.000258592
-1.26682e-05
0.000260729
-1.38296e-05
0.000263058
-1.51087e-05
0.000265596
-1.65194e-05
0.000268365
-1.80774e-05
0.000271387
-1.98009e-05
0.000274687
-2.17108e-05
0.000278294
-2.38311e-05
0.000282238
-2.61899e-05
0.000286556
-2.88197e-05
0.000291285
-3.17583e-05
0.00029647
-3.50504e-05
0.000302159
-3.87484e-05
0.000308406
-4.29146e-05
0.000315273
-4.7623e-05
0.000322828
-5.29621e-05
0.000331145
-5.90386e-05
0.00034031
-6.59811e-05
0.000350413
-7.39465e-05
0.000361556
-8.31263e-05
0.000373845
-9.37566e-05
0.000387392
-0.000106129
0.000402307
-0.000120607
0.000418684
-0.000137644
0.000436599
-0.000157815
0.00045605
-0.000181834
0.000476947
-0.000210622
0.000498981
-0.000245322
0.00052153
-0.000287397
0.000543372
-0.000338653
0.000562326
-0.000401326
0.00057457