/*--------------------------------*- C++ -*----------------------------------*\
  =========                 |
  \\      /  F ield         | OpenFOAM: The Open Source CFD Toolbox
   \\    /   O peration     | Website:  https://openfoam.org
    \\  /    A nd           | Version:  dev
     \\/     M anipulation  |
\*---------------------------------------------------------------------------*/
FoamFile
{
    version     2.0;
    format      ascii;
    class       volVectorField;
    location    "15";
    object      U;
}
// * * * * * * * * * * * * * * * * * * * * * * * * * * * * * * * * * * * * * //

dimensions      [0 1 -1 0 0 0 0];

internalField   nonuniform List<vector> 
8000
(
(0.0997554 -3.50653e-05 0)
(0.100132 -0.000308995 0)
(0.100177 -0.000707206 0)
(0.0998622 -8.85781e-05 0)
(0.0999162 -5.14025e-05 0)
(0.100946 -0.000838346 0)
(0.101414 -0.00239696 0)
(0.0988918 -0.000833354 0)
(0.10035 7.40804e-06 0)
(0.102192 -0.000961611 0)
(0.103526 -0.00377262 0)
(0.0989051 -0.00144041 0)
(0.100772 0.000209663 0)
(0.103531 -0.000319062 0)
(0.106065 -0.00393749 0)
(0.100506 -0.00148319 0)
(0.100725 0.000575224 0)
(0.104449 0.00132551 0)
(0.108354 -0.00221402 0)
(0.103618 0.000123504 0)
(0.0995871 0.00116124 0)
(0.104307 0.003887 0)
(0.109462 0.00185055 0)
(0.107681 0.00443369 0)
(0.0966691 0.00201419 0)
(0.102413 0.00703664 0)
(0.10821 0.00805993 0)
(0.110471 0.0119659 0)
(0.0914549 0.00315145 0)
(0.0980662 0.0101965 0)
(0.103627 0.01524 0)
(0.108956 0.0217556 0)
(0.0839093 0.00442062 0)
(0.0909542 0.0125778 0)
(0.0956405 0.0210172 0)
(0.101376 0.0308892 0)
(0.0747022 0.00548695 0)
(0.081738 0.0136896 0)
(0.0852918 0.0237619 0)
(0.0895651 0.0358104 0)
(0.0647973 0.00604493 0)
(0.0716659 0.0135432 0)
(0.0741285 0.0235981 0)
(0.0764035 0.0354243 0)
(0.0555047 0.00600363 0)
(0.062477 0.0125099 0)
(0.064273 0.0216104 0)
(0.0646266 0.0315498 0)
(0.0470466 0.00555023 0)
(0.0544783 0.0110916 0)
(0.0561495 0.0189024 0)
(0.0554726 0.0267068 0)
(0.0395045 0.00481924 0)
(0.0476968 0.00958206 0)
(0.0495771 0.0161295 0)
(0.0486518 0.0222975 0)
(0.0332105 0.00373231 0)
(0.042005 0.00789006 0)
(0.0441051 0.0133574 0)
(0.0432781 0.0184956 0)
(0.0285215 0.00245196 0)
(0.0372165 0.00599593 0)
(0.0393761 0.0106117 0)
(0.0386983 0.0151239 0)
(0.0253605 0.00142508 0)
(0.0332405 0.00429881 0)
(0.0352203 0.00821359 0)
(0.034632 0.0122344 0)
(0.0232291 0.000862556 0)
(0.0299769 0.00317329 0)
(0.0315945 0.00645879 0)
(0.0310434 0.00995998 0)
(0.0216071 0.000650976 0)
(0.0272993 0.0025945 0)
(0.0285157 0.0053115 0)
(0.0279783 0.00826582 0)
(0.0201907 0.000593061 0)
(0.025082 0.00230589 0)
(0.0259581 0.00453636 0)
(0.0254277 0.00699181 0)
(0.0188768 0.000559642 0)
(0.0232127 0.0020982 0)
(0.0238353 0.0039396 0)
(0.0233169 0.00598599 0)
(0.0176625 0.000514234 0)
(0.0216134 0.00189431 0)
(0.0220549 0.00343475 0)
(0.0215595 0.00515508 0)
(0.0165627 0.000461739 0)
(0.0202347 0.00168969 0)
(0.0205472 0.00299453 0)
(0.0200854 0.00445003 0)
(0.0155809 0.00040962 0)
(0.0190422 0.00149338 0)
(0.0192632 0.00260814 0)
(0.0188418 0.00384289 0)
(0.0147127 0.000360781 0)
(0.0180095 0.00131043 0)
(0.0181673 0.00226738 0)
(0.0177879 0.0033155 0)
(0.0139505 0.000315906 0)
(0.0171162 0.00114239 0)
(0.0172313 0.0019653 0)
(0.0168923 0.0028545 0)
(0.013286 0.000274978 0)
(0.0163456 0.00098932 0)
(0.0164328 0.00169623 0)
(0.0161307 0.00244922 0)
(0.0127106 0.000237719 0)
(0.015684 0.00085049 0)
(0.0157537 0.00145552 0)
(0.0154841 0.00209089 0)
(0.0122166 0.000203773 0)
(0.0151197 0.000724797 0)
(0.015179 0.0012393 0)
(0.0149376 0.00177226 0)
(0.0117963 0.000172732 0)
(0.0146425 0.000610876 0)
(0.0146961 0.0010442 0)
(0.014479 0.00148737 0)
(0.0114439 0.000144363 0)
(0.0142445 0.000507652 0)
(0.0142951 0.000867677 0)
(0.0140987 0.00123157 0)
(0.011152 0.000117586 0)
(0.0139169 0.00041322 0)
(0.0139665 0.000707019 0)
(0.0137881 0.0010008 0)
(0.0109186 9.35188e-05 0)
(0.0136543 0.000328078 0)
(0.0137033 0.00056158 0)
(0.0135405 0.000792554 0)
(0.0107354 7.19363e-05 0)
(0.0134489 0.000251601 0)
(0.0134989 0.000430569 0)
(0.0133501 0.000604778 0)
(0.010598 5.1885e-05 0)
(0.0132953 0.000181769 0)
(0.0133476 0.000310965 0)
(0.013212 0.00043369 0)
(0.0105041 3.30096e-05 0)
(0.0131894 0.000117245 0)
(0.0132451 0.000200673 0)
(0.013122 0.000276702 0)
(0.0104501 1.56103e-05 0)
(0.0131274 5.80056e-05 0)
(0.0131869 9.94615e-05 0)
(0.0130754 0.000133265 0)
(0.0104322 -1.84044e-07 0)
(0.0131049 3.97942e-06 0)
(0.0131687 7.26273e-06 0)
(0.013068 2.98295e-06 0)
(0.0104474 -1.49369e-05 0)
(0.0131189 -4.50427e-05 0)
(0.0131869 -7.61906e-05 0)
(0.0130963 -0.000114762 0)
(0.0104925 -2.78395e-05 0)
(0.0131657 -8.85144e-05 0)
(0.0132379 -0.000150728 0)
(0.0131569 -0.000220256 0)
(0.0105638 -3.94347e-05 0)
(0.0132415 -0.000127375 0)
(0.0133182 -0.000217242 0)
(0.0132462 -0.000314347 0)
(0.0106588 -4.98054e-05 0)
(0.0133433 -0.000161953 0)
(0.0134245 -0.000276299 0)
(0.0133612 -0.000397812 0)
(0.0107746 -5.89824e-05 0)
(0.0134679 -0.000192404 0)
(0.0135537 -0.000328229 0)
(0.0134988 -0.000471136 0)
(0.0109089 -6.7005e-05 0)
(0.0136125 -0.000218898 0)
(0.0137029 -0.00037336 0)
(0.013656 -0.000534783 0)
(0.011059 -7.3917e-05 0)
(0.0137743 -0.000241618 0)
(0.0138694 -0.000412012 0)
(0.0138301 -0.000589201 0)
(0.0112226 -7.97637e-05 0)
(0.0139508 -0.000260742 0)
(0.0140503 -0.000444496 0)
(0.0140183 -0.000634832 0)
(0.0113975 -8.45933e-05 0)
(0.0141393 -0.000276455 0)
(0.0142433 -0.000471133 0)
(0.0142181 -0.000672145 0)
(0.0115816 -8.84604e-05 0)
(0.0143376 -0.000288959 0)
(0.0144459 -0.000492275 0)
(0.014427 -0.000701653 0)
(0.0117727 -9.1423e-05 0)
(0.0145435 -0.000298466 0)
(0.0146559 -0.000508293 0)
(0.014643 -0.000723888 0)
(0.0119691 -9.35419e-05 0)
(0.0147549 -0.000305193 0)
(0.0148713 -0.000519567 0)
(0.0148639 -0.000739391 0)
(0.0121691 -9.48802e-05 0)
(0.01497 -0.000309365 0)
(0.0150901 -0.000526483 0)
(0.0150878 -0.000748713 0)
(0.012371 -9.55054e-05 0)
(0.0151871 -0.000311203 0)
(0.0153107 -0.000529428 0)
(0.015313 -0.000752406 0)
(0.0125734 -9.54837e-05 0)
(0.0154046 -0.000310932 0)
(0.0155315 -0.000528786 0)
(0.0155378 -0.000751024 0)
(0.012775 -9.48807e-05 0)
(0.015621 -0.000308775 0)
(0.015751 -0.000524942 0)
(0.015761 -0.000745127 0)
(0.0129747 -9.37619e-05 0)
(0.0158353 -0.000304956 0)
(0.015968 -0.000518281 0)
(0.0159812 -0.000735257 0)
(0.0131715 -9.21926e-05 0)
(0.0160463 -0.000299687 0)
(0.0161815 -0.000509165 0)
(0.0161975 -0.000721937 0)
(0.0133644 -9.02359e-05 0)
(0.016253 -0.000293174 0)
(0.0163906 -0.000497946 0)
(0.0164089 -0.000705664 0)
(0.0135528 -8.79513e-05 0)
(0.0164547 -0.000285611 0)
(0.0165943 -0.000484954 0)
(0.0166147 -0.000686911 0)
(0.013736 -8.53951e-05 0)
(0.0166508 -0.000277179 0)
(0.0167922 -0.000470502 0)
(0.0168142 -0.000666121 0)
(0.0139134 -8.26188e-05 0)
(0.0168406 -0.000268051 0)
(0.0169837 -0.000454878 0)
(0.017007 -0.000643705 0)
(0.0140848 -7.96704e-05 0)
(0.0170238 -0.00025838 0)
(0.0171683 -0.000438348 0)
(0.0171926 -0.00062004 0)
(0.0142497 -7.65938e-05 0)
(0.0172001 -0.000248309 0)
(0.0173458 -0.000421154 0)
(0.0173707 -0.000595466 0)
(0.0144081 -7.34289e-05 0)
(0.0173692 -0.000237967 0)
(0.0175159 -0.000403512 0)
(0.0175413 -0.000570292 0)
(0.0145596 -7.02118e-05 0)
(0.017531 -0.000227468 0)
(0.0176786 -0.000385616 0)
(0.0177042 -0.000544789 0)
(0.0147043 -6.69733e-05 0)
(0.0176854 -0.000216912 0)
(0.0178337 -0.000367636 0)
(0.0178594 -0.000519198 0)
(0.0148421 -6.37411e-05 0)
(0.0178324 -0.000206388 0)
(0.0179813 -0.000349721 0)
(0.0180069 -0.000493726 0)
(0.0149731 -6.05383e-05 0)
(0.0179721 -0.00019597 0)
(0.0181215 -0.000331998 0)
(0.0181468 -0.00046855 0)
(0.0150974 -5.73853e-05 0)
(0.0181046 -0.000185723 0)
(0.0182544 -0.000314574 0)
(0.0182793 -0.000443821 0)
(0.0152151 -5.42986e-05 0)
(0.0182301 -0.000175701 0)
(0.0183801 -0.000297539 0)
(0.0184045 -0.000419664 0)
(0.0153263 -5.12923e-05 0)
(0.0183486 -0.000165946 0)
(0.0184988 -0.000280968 0)
(0.0185226 -0.00039618 0)
(0.0154313 -4.83775e-05 0)
(0.0184604 -0.000156494 0)
(0.0186107 -0.000264919 0)
(0.018634 -0.00037345 0)
(0.0155303 -4.55635e-05 0)
(0.0185658 -0.000147372 0)
(0.0187162 -0.000249436 0)
(0.0187387 -0.000351536 0)
(0.0156234 -4.28565e-05 0)
(0.0186649 -0.0001386 0)
(0.0188153 -0.000234555 0)
(0.0188372 -0.000330484 0)
(0.015711 -4.02616e-05 0)
(0.0187581 -0.000130192 0)
(0.0189085 -0.000220297 0)
(0.0189296 -0.000310325 0)
(0.0157931 -3.77808e-05 0)
(0.0188455 -0.000122159 0)
(0.0189959 -0.000206677 0)
(0.0190162 -0.000291078 0)
(0.0158702 -3.54157e-05 0)
(0.0189275 -0.000114504 0)
(0.0190778 -0.000193702 0)
(0.0190973 -0.00027275 0)
(0.0159424 -3.31668e-05 0)
(0.0190043 -0.000107228 0)
(0.0191545 -0.000181371 0)
(0.0191733 -0.000255341 0)
(0.01601 -3.10333e-05 0)
(0.0190762 -0.000100326 0)
(0.0192262 -0.00016968 0)
(0.0192443 -0.00023884 0)
(0.0160732 -2.90135e-05 0)
(0.0191435 -9.37952e-05 0)
(0.0192933 -0.000158617 0)
(0.0193106 -0.000223234 0)
(0.0161323 -2.71048e-05 0)
(0.0192063 -8.7626e-05 0)
(0.019356 -0.000148171 0)
(0.0193726 -0.000208501 0)
(0.0161875 -2.5305e-05 0)
(0.0192649 -8.18097e-05 0)
(0.0194145 -0.000138323 0)
(0.0194304 -0.000194617 0)
(0.016239 -2.36104e-05 0)
(0.0193197 -7.63348e-05 0)
(0.0194691 -0.000129056 0)
(0.0194843 -0.000181555 0)
(0.0162871 -2.20176e-05 0)
(0.0193708 -7.11892e-05 0)
(0.01952 -0.000120348 0)
(0.0195346 -0.000169284 0)
(0.0163318 -2.05229e-05 0)
(0.0194184 -6.63602e-05 0)
(0.0195674 -0.000112177 0)
(0.0195814 -0.000157774 0)
(0.0163736 -1.91215e-05 0)
(0.0194627 -6.18348e-05 0)
(0.0196116 -0.000104521 0)
(0.019625 -0.000146991 0)
(0.0164125 -1.78097e-05 0)
(0.0195041 -5.75995e-05 0)
(0.0196528 -9.73572e-05 0)
(0.0196656 -0.000136903 0)
(0.0164487 -1.65833e-05 0)
(0.0195426 -5.36409e-05 0)
(0.0196911 -9.06615e-05 0)
(0.0197034 -0.000127476 0)
(0.0164824 -1.54381e-05 0)
(0.0195784 -4.99446e-05 0)
(0.0197268 -8.44106e-05 0)
(0.0197386 -0.000118677 0)
(0.0165138 -1.43702e-05 0)
(0.0196118 -4.64975e-05 0)
(0.01976 -7.85818e-05 0)
(0.0197713 -0.000110475 0)
(0.0165431 -1.3375e-05 0)
(0.0196429 -4.32867e-05 0)
(0.019791 -7.31533e-05 0)
(0.0198017 -0.000102836 0)
(0.0165703 -1.2449e-05 0)
(0.0196718 -4.0299e-05 0)
(0.0198197 -6.81028e-05 0)
(0.0198301 -9.57306e-05 0)
(0.0165956 -1.15885e-05 0)
(0.0196987 -3.75225e-05 0)
(0.0198465 -6.34094e-05 0)
(0.0198565 -8.91286e-05 0)
(0.0166192 -1.07892e-05 0)
(0.0197238 -3.49449e-05 0)
(0.0198715 -5.90531e-05 0)
(0.019881 -8.30017e-05 0)
(0.0166412 -1.00479e-05 0)
(0.0197472 -3.25551e-05 0)
(0.0198947 -5.50149e-05 0)
(0.0199039 -7.73227e-05 0)
(0.0166617 -9.36137e-06 0)
(0.0197689 -3.03424e-05 0)
(0.0199164 -5.12759e-05 0)
(0.0199252 -7.20652e-05 0)
(0.0166807 -8.72624e-06 0)
(0.0197892 -2.82965e-05 0)
(0.0199366 -4.78191e-05 0)
(0.0199451 -6.72043e-05 0)
(0.0166985 -8.13948e-06 0)
(0.0198082 -2.64074e-05 0)
(0.0199554 -4.46275e-05 0)
(0.0199636 -6.27171e-05 0)
(0.0167152 -7.59848e-06 0)
(0.0198259 -2.46661e-05 0)
(0.019973 -4.16857e-05 0)
(0.0199809 -5.85817e-05 0)
(0.0167307 -7.1008e-06 0)
(0.0198424 -2.30642e-05 0)
(0.0199894 -3.89793e-05 0)
(0.019997 -5.47774e-05 0)
(0.0167452 -6.64338e-06 0)
(0.0198578 -2.15932e-05 0)
(0.0200048 -3.64947e-05 0)
(0.0200121 -5.12853e-05 0)
(0.0167588 -6.22412e-06 0)
(0.0198723 -2.02458e-05 0)
(0.0200192 -3.4219e-05 0)
(0.0200263 -4.80873e-05 0)
(0.0167716 -5.84061e-06 0)
(0.0198859 -1.9015e-05 0)
(0.0200327 -3.21409e-05 0)
(0.0200396 -4.5167e-05 0)
(0.0167836 -5.49113e-06 0)
(0.0198987 -1.78948e-05 0)
(0.0200454 -3.02495e-05 0)
(0.0200521 -4.25088e-05 0)
(0.0167949 -5.1742e-06 0)
(0.0199108 -1.68792e-05 0)
(0.0200574 -2.85344e-05 0)
(0.0200638 -4.0099e-05 0)
(0.0168056 -4.88751e-06 0)
(0.0199222 -1.59625e-05 0)
(0.0200687 -2.69871e-05 0)
(0.0200749 -3.79245e-05 0)
(0.0168157 -4.62995e-06 0)
(0.019933 -1.514e-05 0)
(0.0200794 -2.55987e-05 0)
(0.0200855 -3.59741e-05 0)
(0.0168253 -4.39967e-06 0)
(0.0199432 -1.44072e-05 0)
(0.0200896 -2.43621e-05 0)
(0.0200955 -3.42366e-05 0)
(0.0168344 -4.19524e-06 0)
(0.019953 -1.376e-05 0)
(0.0200993 -2.32708e-05 0)
(0.020105 -3.27027e-05 0)
(0.0168432 -4.0166e-06 0)
(0.0199624 -1.31956e-05 0)
(0.0201086 -2.23183e-05 0)
(0.0201141 -3.13642e-05 0)
(0.0168516 -3.86231e-06 0)
(0.0199714 -1.27103e-05 0)
(0.0201175 -2.14997e-05 0)
(0.0201229 -3.02142e-05 0)
(0.0168597 -3.73155e-06 0)
(0.0199801 -1.23016e-05 0)
(0.0201261 -2.08105e-05 0)
(0.0201313 -2.92461e-05 0)
(0.0168675 -3.62328e-06 0)
(0.0199885 -1.19674e-05 0)
(0.0201345 -2.02475e-05 0)
(0.0201395 -2.84549e-05 0)
(0.0168752 -3.53696e-06 0)
(0.0199968 -1.17058e-05 0)
(0.0201426 -1.98073e-05 0)
(0.0201475 -2.78364e-05 0)
(0.0168827 -3.47209e-06 0)
(0.0200049 -1.15158e-05 0)
(0.0201506 -1.9488e-05 0)
(0.0201554 -2.73874e-05 0)
(0.0168901 -3.42895e-06 0)
(0.0200128 -1.13965e-05 0)
(0.0201585 -1.92879e-05 0)
(0.0201632 -2.71058e-05 0)
(0.0168975 -3.40743e-06 0)
(0.0200208 -1.13474e-05 0)
(0.0201664 -1.92063e-05 0)
(0.0201709 -2.69908e-05 0)
(0.0169048 -3.4073e-06 0)
(0.0200287 -1.13683e-05 0)
(0.0201742 -1.92429e-05 0)
(0.0201785 -2.70422e-05 0)
(0.0169122 -3.42806e-06 0)
(0.0200367 -1.14591e-05 0)
(0.0201821 -1.93982e-05 0)
(0.0201863 -2.72605e-05 0)
(0.0169197 -3.47018e-06 0)
(0.0200447 -1.16211e-05 0)
(0.02019 -1.96735e-05 0)
(0.0201941 -2.76471e-05 0)
(0.0169273 -3.53307e-06 0)
(0.0200529 -1.18548e-05 0)
(0.0201981 -2.00714e-05 0)
(0.020202 -2.8205e-05 0)
(0.016935 -3.61852e-06 0)
(0.0200613 -1.21627e-05 0)
(0.0202064 -2.05936e-05 0)
(0.0202101 -2.89381e-05 0)
(0.016943 -3.72706e-06 0)
(0.0200699 -1.25469e-05 0)
(0.0202149 -2.12443e-05 0)
(0.0202185 -2.98514e-05 0)
(0.0169513 -3.85924e-06 0)
(0.0200789 -1.30098e-05 0)
(0.0202237 -2.2028e-05 0)
(0.0202271 -3.09511e-05 0)
(0.0169598 -4.01611e-06 0)
(0.0200882 -1.35541e-05 0)
(0.0202329 -2.29496e-05 0)
(0.0202361 -3.22449e-05 0)
(0.0169688 -4.19838e-06 0)
(0.0200979 -1.41836e-05 0)
(0.0202424 -2.4015e-05 0)
(0.0202455 -3.37408e-05 0)
(0.0169782 -4.40688e-06 0)
(0.020108 -1.49023e-05 0)
(0.0202525 -2.52318e-05 0)
(0.0202553 -3.5449e-05 0)
(0.016988 -4.64368e-06 0)
(0.0201188 -1.57156e-05 0)
(0.020263 -2.66081e-05 0)
(0.0202657 -3.73807e-05 0)
(0.0169985 -4.9098e-06 0)
(0.0201301 -1.66283e-05 0)
(0.0202741 -2.81527e-05 0)
(0.0202766 -3.95485e-05 0)
(0.0170095 -5.20783e-06 0)
(0.0201421 -1.76467e-05 0)
(0.0202859 -2.98755e-05 0)
(0.0202882 -4.19668e-05 0)
(0.0170213 -5.53938e-06 0)
(0.0201548 -1.87775e-05 0)
(0.0202985 -3.17883e-05 0)
(0.0203005 -4.46516e-05 0)
(0.0170338 -5.9064e-06 0)
(0.0201684 -2.00281e-05 0)
(0.0203118 -3.39039e-05 0)
(0.0203136 -4.76206e-05 0)
(0.0170471 -6.31152e-06 0)
(0.0201829 -2.14071e-05 0)
(0.0203261 -3.62365e-05 0)
(0.0203275 -5.08936e-05 0)
(0.0170614 -6.75693e-06 0)
(0.0201984 -2.29234e-05 0)
(0.0203414 -3.88009e-05 0)
(0.0203425 -5.4492e-05 0)
(0.0170767 -7.24642e-06 0)
(0.020215 -2.45873e-05 0)
(0.0203577 -4.16151e-05 0)
(0.0203585 -5.84401e-05 0)
(0.0170932 -7.78352e-06 0)
(0.0202329 -2.64107e-05 0)
(0.0203752 -4.4697e-05 0)
(0.0203757 -6.27632e-05 0)
(0.0171108 -8.37184e-06 0)
(0.020252 -2.84051e-05 0)
(0.0203941 -4.80678e-05 0)
(0.0203942 -6.74919e-05 0)
(0.0171299 -9.01526e-06 0)
(0.0202727 -3.05838e-05 0)
(0.0204143 -5.175e-05 0)
(0.0204141 -7.26575e-05 0)
(0.0171503 -9.71814e-06 0)
(0.0202949 -3.29624e-05 0)
(0.0204362 -5.57694e-05 0)
(0.0204355 -7.8295e-05 0)
(0.0171724 -1.04849e-05 0)
(0.0203189 -3.55565e-05 0)
(0.0204597 -6.01534e-05 0)
(0.0204585 -8.44436e-05 0)
(0.0171963 -1.13213e-05 0)
(0.0203447 -3.83847e-05 0)
(0.0204851 -6.49319e-05 0)
(0.0204834 -9.11448e-05 0)
(0.017222 -1.22331e-05 0)
(0.0203726 -4.14667e-05 0)
(0.0205125 -7.01385e-05 0)
(0.0205103 -9.84447e-05 0)
(0.0172499 -1.32275e-05 0)
(0.0204028 -4.48243e-05 0)
(0.0205421 -7.58091e-05 0)
(0.0205393 -0.000106395 0)
(0.0172799 -1.43114e-05 0)
(0.0204354 -4.84812e-05 0)
(0.0205741 -8.19841e-05 0)
(0.0205706 -0.00011505 0)
(0.0173125 -1.54928e-05 0)
(0.0204706 -5.24636e-05 0)
(0.0206087 -8.87071e-05 0)
(0.0206045 -0.000124472 0)
(0.0173478 -1.67799e-05 0)
(0.0205088 -5.67996e-05 0)
(0.0206462 -9.60263e-05 0)
(0.0206412 -0.000134728 0)
(0.0173859 -1.81826e-05 0)
(0.0205501 -6.15216e-05 0)
(0.0206867 -0.000103995 0)
(0.0206809 -0.000145893 0)
(0.0174273 -1.97117e-05 0)
(0.0205948 -6.66649e-05 0)
(0.0207306 -0.000112672 0)
(0.0207239 -0.000158047 0)
(0.0174721 -2.13792e-05 0)
(0.0206433 -7.22676e-05 0)
(0.0207782 -0.000122122 0)
(0.0207705 -0.00017128 0)
(0.0175208 -2.31976e-05 0)
(0.0206958 -7.8372e-05 0)
(0.0208297 -0.000132414 0)
(0.0208209 -0.000185692 0)
(0.0175735 -2.51813e-05 0)
(0.0207528 -8.50254e-05 0)
(0.0208855 -0.00014363 0)
(0.0208756 -0.00020139 0)
(0.0176308 -2.73468e-05 0)
(0.0208145 -9.22799e-05 0)
(0.0209461 -0.000155854 0)
(0.0209348 -0.000218497 0)
(0.0176929 -2.97114e-05 0)
(0.0208816 -0.000100193 0)
(0.0210118 -0.000169182 0)
(0.0209991 -0.000237145 0)
(0.0177604 -3.22951e-05 0)
(0.0209543 -0.000108828 0)
(0.0210832 -0.000183722 0)
(0.0210689 -0.000257482 0)
(0.0178338 -3.51193e-05 0)
(0.0210334 -0.000118257 0)
(0.0211606 -0.000199592 0)
(0.0211446 -0.000279671 0)
(0.0179136 -3.82089e-05 0)
(0.0211192 -0.00012856 0)
(0.0212447 -0.000216923 0)
(0.0212268 -0.000303895 0)
(0.0180003 -4.15915e-05 0)
(0.0212125 -0.000139824 0)
(0.021336 -0.000235863 0)
(0.0213161 -0.000330356 0)
(0.0180947 -4.52986e-05 0)
(0.0213139 -0.00015215 0)
(0.0214353 -0.000256574 0)
(0.0214131 -0.000359281 0)
(0.0181975 -4.93651e-05 0)
(0.0214242 -0.000165647 0)
(0.0215433 -0.000279241 0)
(0.0215185 -0.000390923 0)
(0.0183095 -5.38301e-05 0)
(0.0215443 -0.00018044 0)
(0.0216607 -0.000304068 0)
(0.0216332 -0.000425566 0)
(0.0184315 -5.8738e-05 0)
(0.021675 -0.00019667 0)
(0.0217885 -0.000331287 0)
(0.0217579 -0.000463526 0)
(0.0185646 -6.4139e-05 0)
(0.0218174 -0.000214494 0)
(0.0219277 -0.000361157 0)
(0.0218937 -0.000505162 0)
(0.0187099 -7.00897e-05 0)
(0.0219726 -0.000234092 0)
(0.0220794 -0.000393974 0)
(0.0220416 -0.000550878 0)
(0.0188686 -7.66555e-05 0)
(0.0221418 -0.000255667 0)
(0.0222447 -0.000430071 0)
(0.0222027 -0.00060113 0)
(0.0190421 -8.39114e-05 0)
(0.0223266 -0.000279451 0)
(0.0224251 -0.000469826 0)
(0.0223783 -0.000656438 0)
(0.0192318 -9.19432e-05 0)
(0.0225284 -0.000305709 0)
(0.0226219 -0.000513673 0)
(0.0225699 -0.000717392 0)
(0.0194396 -0.00010085 0)
(0.022749 -0.000334746 0)
(0.022837 -0.000562106 0)
(0.022779 -0.000784665 0)
(0.0196674 -0.000110746 0)
(0.0229904 -0.000366909 0)
(0.0230721 -0.000615689 0)
(0.0230075 -0.00085903 0)
(0.0199173 -0.000121762 0)
(0.0232547 -0.000402602 0)
(0.0233294 -0.000675077 0)
(0.0232573 -0.000941373 0)
(0.0201919 -0.000134054 0)
(0.0235444 -0.000442292 0)
(0.0236113 -0.000741022 0)
(0.0235307 -0.00103272 0)
(0.0204939 -0.000147801 0)
(0.0238624 -0.000486525 0)
(0.0239203 -0.000814398 0)
(0.0238301 -0.00113425 0)
(0.0208267 -0.000163217 0)
(0.0242117 -0.000535936 0)
(0.0242594 -0.000896229 0)
(0.0241583 -0.00124735 0)
(0.0211938 -0.000180554 0)
(0.0245961 -0.000591266 0)
(0.0246322 -0.000987716 0)
(0.0245186 -0.00137364 0)
(0.0215995 -0.000200111 0)
(0.0250196 -0.000653395 0)
(0.0250424 -0.00109027 0)
(0.0249146 -0.00151499 0)
(0.0220486 -0.000222245 0)
(0.0254869 -0.000723364 0)
(0.0254945 -0.00120557 0)
(0.0253502 -0.00167365 0)
(0.0225468 -0.000247385 0)
(0.0260035 -0.000802417 0)
(0.0259936 -0.00133558 0)
(0.0258302 -0.00185227 0)
(0.0231007 -0.000276049 0)
(0.0265757 -0.000892048 0)
(0.0265454 -0.0014827 0)
(0.02636 -0.00205401 0)
(0.0237178 -0.000308862 0)
(0.0272106 -0.000994056 0)
(0.0271567 -0.00164979 0)
(0.0269455 -0.00228266 0)
(0.0244073 -0.000346595 0)
(0.0279169 -0.00111063 0)
(0.0278354 -0.0018403 0)
(0.0275939 -0.0025428 0)
(0.0251798 -0.00039019 0)
(0.0287045 -0.00124445 0)
(0.0285906 -0.00205849 0)
(0.0283133 -0.00284 0)
(0.026048 -0.000440828 0)
(0.0295852 -0.00139882 0)
(0.0294331 -0.00230957 0)
(0.0291132 -0.0031811 0)
(0.027027 -0.000499943 0)
(0.0305732 -0.00157782 0)
(0.0303755 -0.00260002 0)
(0.0300046 -0.00357451 0)
(0.0281353 -0.000569477 0)
(0.0316851 -0.00178675 0)
(0.031433 -0.00293788 0)
(0.0310005 -0.00403073 0)
(0.0293951 -0.00065148 0)
(0.0329414 -0.00203191 0)
(0.0326237 -0.00333337 0)
(0.032116 -0.00456295 0)
(0.0308341 -0.000749712 0)
(0.0343667 -0.0023224 0)
(0.0339693 -0.00379953 0)
(0.0333694 -0.00518789 0)
(0.0324857 -0.000866508 0)
(0.0359919 -0.00266763 0)
(0.0354964 -0.00435332 0)
(0.0347818 -0.00592691 0)
(0.0343932 -0.00101001 0)
(0.0378544 -0.00308461 0)
(0.0372375 -0.00501671 0)
(0.0363789 -0.00680785 0)
(0.0366097 -0.00118258 0)
(0.0400025 -0.00358845 0)
(0.0392326 -0.00581919 0)
(0.0381909 -0.00786691 0)
(0.0392053 -0.00139953 0)
(0.0424967 -0.00421018 0)
(0.041532 -0.00679987 0)
(0.0402544 -0.00915255 0)
(0.0422693 -0.0016673 0)
(0.0454158 -0.00497991 0)
(0.0441986 -0.00801293 0)
(0.0426127 -0.0107295 0)
(0.0459235 -0.00201059 0)
(0.0488627 -0.00595343 0)
(0.0473125 -0.00953283 0)
(0.0453172 -0.0126865 0)
(0.0503223 -0.00244962 0)
(0.0529754 -0.00719753 0)
(0.0509773 -0.0114658 0)
(0.0484285 -0.0151459 0)
(0.0557094 -0.00302625 0)
(0.0579408 -0.00881934 0)
(0.0553235 -0.0139639 0)
(0.0520152 -0.0182809 0)
(0.06232 -0.00380008 0)
(0.0640152 -0.0109825 0)
(0.0605376 -0.017252 0)
(0.0561563 -0.0223359 0)
(0.0708488 -0.00483997 0)
(0.0715764 -0.013886 0)
(0.0668138 -0.0216647 0)
(0.0609165 -0.0276789 0)
(0.0810571 -0.00630762 0)
(0.0810813 -0.017999 0)
(0.0746211 -0.0277191 0)
(0.066416 -0.0348162 0)
(0.0966218 -0.00842899 0)
(0.0936196 -0.0236108 0)
(0.0839529 -0.0361983 0)
(0.0724534 -0.0446799 0)
(0.110536 -0.0109065 0)
(0.108744 -0.0316061 0)
(0.0970766 -0.0483453 0)
(0.0800337 -0.0582489 0)
(0.146568 -0.0165418 0)
(0.13452 -0.044795 0)
(0.111435 -0.066468 0)
(0.0850709 -0.0789206 0)
(0.15793 -0.0174274 0)
(0.151952 -0.0531171 0)
(0.135341 -0.0884672 0)
(0.104736 -0.106849 0)
(0.246882 -0.0342584 0)
(0.225981 -0.0986486 0)
(0.176813 -0.149139 0)
(0.101958 -0.168905 0)
(0.00727623 -0.00359327 0)
(0.0156904 -0.00792208 0)
(0.0273862 -0.0111398 0)
(0.0407012 -0.0123727 0)
(0.0528115 -0.0106505 0)
(0.0635976 -0.00511495 0)
(0.075118 0.00636109 0)
(0.0856308 0.0236903 0)
(0.0871472 0.0375714 0)
(0.0812915 0.04581 0)
(0.071236 0.0471588 0)
(0.06061 0.0422023 0)
(0.0516657 0.0348231 0)
(0.0452447 0.0283875 0)
(0.0402558 0.0233511 0)
(0.0360275 0.0192918 0)
(0.0323271 0.0159153 0)
(0.0291095 0.0131519 0)
(0.0263757 0.0109586 0)
(0.0240941 0.00922985 0)
(0.0221985 0.00784222 0)
(0.0206168 0.00670096 0)
(0.0192872 0.00574531 0)
(0.0181612 0.00493571 0)
(0.0172028 0.00424269 0)
(0.016385 0.00364355 0)
(0.0156871 0.0031208 0)
(0.0150932 0.00266084 0)
(0.0145904 0.00225309 0)
(0.0141686 0.00188917 0)
(0.0138194 0.00156251 0)
(0.0135358 0.00126783 0)
(0.0133118 0.00100137 0)
(0.0131424 0.000759741 0)
(0.0130236 0.000539387 0)
(0.0129509 0.000337689 0)
(0.0129202 0.000153471 0)
(0.0129276 -1.39169e-05 0)
(0.0129697 -0.000165185 0)
(0.0130433 -0.000300996 0)
(0.0131451 -0.0004221 0)
(0.013272 -0.000529455 0)
(0.013421 -0.000623682 0)
(0.0135891 -0.00070535 0)
(0.0137735 -0.00077502 0)
(0.0139714 -0.000833274 0)
(0.0141804 -0.000880739 0)
(0.014398 -0.00091808 0)
(0.014622 -0.000945985 0)
(0.0148503 -0.00096516 0)
(0.015081 -0.000976327 0)
(0.0153122 -0.000980209 0)
(0.0155426 -0.00097754 0)
(0.0157706 -0.000969053 0)
(0.0159951 -0.000955457 0)
(0.0162151 -0.000937435 0)
(0.0164296 -0.00091564 0)
(0.0166379 -0.000890689 0)
(0.0168395 -0.000863158 0)
(0.0170338 -0.000833581 0)
(0.0172207 -0.000802446 0)
(0.0173997 -0.000770195 0)
(0.0175708 -0.000737222 0)
(0.0177339 -0.00070388 0)
(0.017889 -0.000670475 0)
(0.0180363 -0.000637271 0)
(0.0181757 -0.000604497 0)
(0.0183076 -0.000572344 0)
(0.0184321 -0.000540968 0)
(0.0185494 -0.000510497 0)
(0.0186598 -0.000481031 0)
(0.0187636 -0.000452647 0)
(0.018861 -0.000425401 0)
(0.0189524 -0.000399329 0)
(0.019038 -0.000374452 0)
(0.019118 -0.000350777 0)
(0.0191929 -0.000328302 0)
(0.0192629 -0.000307013 0)
(0.0193282 -0.000286887 0)
(0.0193892 -0.000267895 0)
(0.019446 -0.000250007 0)
(0.019499 -0.000233183 0)
(0.0195483 -0.000217385 0)
(0.0195943 -0.000202571 0)
(0.0196371 -0.000188698 0)
(0.0196769 -0.000175723 0)
(0.0197139 -0.000163601 0)
(0.0197484 -0.00015229 0)
(0.0197805 -0.000141748 0)
(0.0198103 -0.000131933 0)
(0.019838 -0.000122805 0)
(0.0198639 -0.000114326 0)
(0.0198879 -0.000106457 0)
(0.0199103 -9.91655e-05 0)
(0.0199311 -9.24158e-05 0)
(0.0199505 -8.61762e-05 0)
(0.0199686 -8.04172e-05 0)
(0.0199855 -7.51106e-05 0)
(0.0200013 -7.0229e-05 0)
(0.020016 -6.57484e-05 0)
(0.0200298 -6.16457e-05 0)
(0.0200428 -5.78994e-05 0)
(0.020055 -5.44896e-05 0)
(0.0200665 -5.13988e-05 0)
(0.0200773 -4.86099e-05 0)
(0.0200876 -4.61079e-05 0)
(0.0200974 -4.38796e-05 0)
(0.0201067 -4.19124e-05 0)
(0.0201156 -4.01961e-05 0)
(0.0201241 -3.87212e-05 0)
(0.0201324 -3.74798e-05 0)
(0.0201404 -3.6465e-05 0)
(0.0201482 -3.56714e-05 0)
(0.0201558 -3.50954e-05 0)
(0.0201634 -3.47341e-05 0)
(0.0201709 -3.4586e-05 0)
(0.0201784 -3.46509e-05 0)
(0.0201859 -3.49296e-05 0)
(0.0201935 -3.54238e-05 0)
(0.0202013 -3.61374e-05 0)
(0.0202092 -3.70758e-05 0)
(0.0202174 -3.82451e-05 0)
(0.0202258 -3.96531e-05 0)
(0.0202345 -4.13093e-05 0)
(0.0202437 -4.32244e-05 0)
(0.0202533 -4.54113e-05 0)
(0.0202633 -4.78842e-05 0)
(0.020274 -5.06594e-05 0)
(0.0202853 -5.37554e-05 0)
(0.0202973 -5.71923e-05 0)
(0.02031 -6.09929e-05 0)
(0.0203236 -6.51818e-05 0)
(0.0203382 -6.97879e-05 0)
(0.0203538 -7.48408e-05 0)
(0.0203706 -8.03745e-05 0)
(0.0203886 -8.64259e-05 0)
(0.0204079 -9.30364e-05 0)
(0.0204288 -0.00010025 0)
(0.0204512 -0.000108116 0)
(0.0204755 -0.000116689 0)
(0.0205016 -0.000126027 0)
(0.0205299 -0.000136196 0)
(0.0205604 -0.000147265 0)
(0.0205934 -0.000159313 0)
(0.0206291 -0.000172426 0)
(0.0206677 -0.000186698 0)
(0.0207095 -0.000202233 0)
(0.0207548 -0.000219144 0)
(0.0208038 -0.000237557 0)
(0.020857 -0.00025761 0)
(0.0209146 -0.000279457 0)
(0.0209771 -0.000303265 0)
(0.0210448 -0.000329223 0)
(0.0211183 -0.000357537 0)
(0.0211981 -0.000388438 0)
(0.0212847 -0.000422181 0)
(0.0213788 -0.000459053 0)
(0.021481 -0.000499371 0)
(0.0215921 -0.000543493 0)
(0.0217129 -0.000591817 0)
(0.0218443 -0.000644794 0)
(0.0219873 -0.000702928 0)
(0.022143 -0.000766793 0)
(0.0223126 -0.000837036 0)
(0.0224974 -0.000914393 0)
(0.022699 -0.000999702 0)
(0.022919 -0.00109392 0)
(0.0231593 -0.00119815 0)
(0.0234218 -0.00131366 0)
(0.023709 -0.00144191 0)
(0.0240233 -0.00158459 0)
(0.0243678 -0.00174369 0)
(0.0247456 -0.00192153 0)
(0.0251603 -0.00212082 0)
(0.0256162 -0.00234478 0)
(0.026118 -0.00259724 0)
(0.0266709 -0.00288278 0)
(0.0272811 -0.00320687 0)
(0.0279554 -0.00357617 0)
(0.0287018 -0.00399877 0)
(0.0295293 -0.00448457 0)
(0.0304483 -0.00504583 0)
(0.0314707 -0.00569778 0)
(0.0326102 -0.00645958 0)
(0.0338822 -0.00735543 0)
(0.0353043 -0.00841637 0)
(0.0368963 -0.00968231 0)
(0.0386797 -0.0112054 0)
(0.0406774 -0.0130541 0)
(0.0429119 -0.0153198 0)
(0.0454023 -0.0181247 0)
(0.0481579 -0.0216355 0)
(0.0511667 -0.0260797 0)
(0.0543753 -0.0317751 0)
(0.0576402 -0.0391551 0)
(0.0606751 -0.0488814 0)
(0.0628159 -0.0617262 0)
(0.0624689 -0.0796426 0)
(0.059933 -0.103507 0)
(0.0178384 -0.144666 0)
(0.00520907 -0.0174321 0)
(0.0120714 -0.0219829 0)
(0.0214212 -0.0255037 0)
(0.0308742 -0.0267769 0)
(0.0405908 -0.0239598 0)
(0.0487882 -0.0174892 0)
(0.0544427 -0.0064624 0)
(0.0606494 0.0146435 0)
(0.0643288 0.0377599 0)
(0.0620549 0.0508227 0)
(0.0571894 0.0545914 0)
(0.0504291 0.0506429 0)
(0.0439607 0.0419194 0)
(0.0391558 0.0337467 0)
(0.0352865 0.0276366 0)
(0.0318357 0.0229504 0)
(0.0288366 0.0191063 0)
(0.026281 0.0158879 0)
(0.0241166 0.0132573 0)
(0.0222858 0.0111464 0)
(0.0207358 0.00944373 0)
(0.0194172 0.00804931 0)
(0.0182883 0.0068901 0)
(0.0173179 0.00591329 0)
(0.0164817 0.00508001 0)
(0.0157613 0.00436108 0)
(0.0151421 0.00373433 0)
(0.0146125 0.00318288 0)
(0.014163 0.00269366 0)
(0.0137859 0.00225646 0)
(0.0134747 0.00186336 0)
(0.0132239 0.00150815 0)
(0.0130287 0.00118601 0)
(0.0128852 0.000892927 0)
(0.0127895 0.000625213 0)
(0.012738 0.000380249 0)
(0.0127266 0.000156704 0)
(0.0127522 -4.66555e-05 0)
(0.0128115 -0.000230669 0)
(0.0129014 -0.000396063 0)
(0.0130189 -0.000543603 0)
(0.0131607 -0.000674244 0)
(0.013324 -0.00078879 0)
(0.0135057 -0.000887884 0)
(0.0137031 -0.000972205 0)
(0.0139134 -0.00104247 0)
(0.014134 -0.00109946 0)
(0.0143625 -0.00114397 0)
(0.0145966 -0.00117685 0)
(0.0148342 -0.00119898 0)
(0.0150734 -0.00121126 0)
(0.0153123 -0.0012146 0)
(0.0155495 -0.00120993 0)
(0.0157836 -0.00119815 0)
(0.0160134 -0.00118015 0)
(0.0162379 -0.00115678 0)
(0.0164562 -0.00112885 0)
(0.0166677 -0.00109712 0)
(0.0168718 -0.00106231 0)
(0.0170682 -0.00102508 0)
(0.0172565 -0.000986034 0)
(0.0174365 -0.000945706 0)
(0.0176081 -0.000904584 0)
(0.0177715 -0.000863093 0)
(0.0179265 -0.000821606 0)
(0.0180733 -0.000780444 0)
(0.0182122 -0.000739879 0)
(0.0183433 -0.000700139 0)
(0.0184668 -0.000661412 0)
(0.018583 -0.000623847 0)
(0.0186922 -0.000587565 0)
(0.0187948 -0.000552652 0)
(0.0188909 -0.000519171 0)
(0.0189809 -0.000487163 0)
(0.0190651 -0.000456647 0)
(0.0191438 -0.00042763 0)
(0.0192174 -0.000400102 0)
(0.019286 -0.000374043 0)
(0.0193501 -0.000349423 0)
(0.0194098 -0.000326206 0)
(0.0194654 -0.000304348 0)
(0.0195172 -0.000283802 0)
(0.0195654 -0.000264517 0)
(0.0196103 -0.000246441 0)
(0.019652 -0.000229521 0)
(0.0196909 -0.0002137 0)
(0.019727 -0.000198927 0)
(0.0197606 -0.000185146 0)
(0.0197918 -0.000172304 0)
(0.0198208 -0.000160352 0)
(0.0198478 -0.00014924 0)
(0.0198729 -0.00013892 0)
(0.0198963 -0.000129345 0)
(0.019918 -0.000120473 0)
(0.0199383 -0.000112263 0)
(0.0199571 -0.000104675 0)
(0.0199747 -9.76724e-05 0)
(0.0199911 -9.12205e-05 0)
(0.0200064 -8.52864e-05 0)
(0.0200207 -7.98404e-05 0)
(0.0200342 -7.48541e-05 0)
(0.0200467 -7.03016e-05 0)
(0.0200586 -6.61586e-05 0)
(0.0200697 -6.24032e-05 0)
(0.0200802 -5.90149e-05 0)
(0.0200902 -5.59754e-05 0)
(0.0200996 -5.32683e-05 0)
(0.0201086 -5.0879e-05 0)
(0.0201173 -4.87942e-05 0)
(0.0201255 -4.70024e-05 0)
(0.0201335 -4.54941e-05 0)
(0.0201413 -4.42613e-05 0)
(0.0201489 -4.32971e-05 0)
(0.0201563 -4.25969e-05 0)
(0.0201636 -4.21573e-05 0)
(0.0201709 -4.19766e-05 0)
(0.0201781 -4.20543e-05 0)
(0.0201854 -4.23914e-05 0)