/*--------------------------------*- C++ -*----------------------------------*\
  =========                 |
  \\      /  F ield         | OpenFOAM: The Open Source CFD Toolbox
   \\    /   O peration     | Website:  https://openfoam.org
    \\  /    A nd           | Version:  dev
     \\/     M anipulation  |
\*---------------------------------------------------------------------------*/
FoamFile
{
    version     2.0;
    format      ascii;
    class       surfaceScalarField;
    location    "7";
    object      phi;
}
// * * * * * * * * * * * * * * * * * * * * * * * * * * * * * * * * * * * * * //

dimensions      [1 0 -1 0 0 0 0];

internalField   nonuniform List<scalar> 
15760
(
6.87321e-06
0.00115175
3.71566e-06
0.00116177
-2.16623e-05
0.00118398
0.00119967
-6.27349e-05
1.85881e-05
0.00113316
2.69735e-05
0.00115339
2.94654e-05
0.00118149
0.00123328
-4.14588e-06
4.19257e-05
0.00109123
7.87625e-05
0.00111655
0.00012793
0.00113233
0.00119735
0.000163868
6.77621e-05
0.00102347
0.000134821
0.00104949
0.000220913
0.00104623
0.00110202
0.00031624
8.50535e-05
0.000938417
0.000171336
0.000963207
0.0002766
0.000940969
0.000968552
0.000410066
9.15208e-05
0.000846896
0.000185834
0.000868893
0.00029382
0.000832983
0.000826314
0.000436058
9.24817e-05
0.000754415
0.000187151
0.000774225
0.000286198
0.000733937
0.00069964
0.000412873
9.36234e-05
0.000660792
0.000183053
0.000684796
0.000269189
0.000647802
0.00059777
0.00037106
9.15855e-05
0.000569207
0.000173099
0.000603283
0.000248114
0.000572787
0.00051827
0.000327615
7.99477e-05
0.000489259
0.000152547
0.000530683
0.000218402
0.000506932
0.00045685
0.000279822
6.20841e-05
0.000427175
0.000124377
0.00046839
0.00018085
0.000450459
0.000409541
0.000228159
4.61563e-05
0.000381018
9.73665e-05
0.00041718
0.000143902
0.000403923
0.000372481
0.000180962
3.52818e-05
0.000345736
7.6145e-05
0.000376317
0.000113446
0.000366622
0.00034275
0.000143177
2.81571e-05
0.000317579
6.03735e-05
0.000344101
9.00529e-05
0.000336943
0.000318554
0.000114249
2.29559e-05
0.000294623
4.84412e-05
0.000318615
7.21873e-05
0.000313197
0.000298781
9.19611e-05
1.88055e-05
0.000275818
3.91597e-05
0.000298261
5.8315e-05
0.000294041
0.000282588
7.45073e-05
1.54075e-05
0.00026041
3.18134e-05
0.000281855
4.73668e-05
0.000278488
0.000269298
6.0657e-05
1.26208e-05
0.000247789
2.59322e-05
0.000268544
3.86137e-05
0.000265806
0.000258374
4.95382e-05
1.03343e-05
0.000237455
2.11786e-05
0.000257699
3.15394e-05
0.000255446
0.000249393
4.05197e-05
8.45315e-06
0.000229002
1.73037e-05
0.000248849
2.57689e-05
0.00024698
0.000242023
3.3139e-05
6.89983e-06
0.000222102
1.41214e-05
0.000241627
2.10254e-05
0.000240077
0.000235995
2.70537e-05
5.61236e-06
0.00021649
1.14912e-05
0.000235749
1.7101e-05
0.000234467
0.000231091
2.20054e-05
4.54116e-06
0.000211949
9.30524e-06
0.000230984
1.38371e-05
0.000229935
0.000227131
1.77966e-05
3.64703e-06
0.000208302
7.48062e-06
0.000227151
1.11117e-05
0.000226304
0.000223968
1.4275e-05
2.89876e-06
0.000205403
5.95272e-06
0.000224097
8.82926e-06
0.000223427
0.000221477
1.13205e-05
2.27159e-06
0.000203131
4.67096e-06
0.000221698
6.9147e-06
0.000221184
0.000219552
8.83893e-06
1.7455e-06
0.000201386
3.59464e-06
0.000219848
5.30762e-06
0.000219471
0.000218106
6.75365e-06
1.30431e-06
0.000200081
2.69099e-06
0.000218462
3.95932e-06
0.000218202
0.000217063
5.00312e-06
9.34762e-07
0.000199147
1.93363e-06
0.000217463
2.8299e-06
0.000217306
0.000216356
3.53636e-06
6.25851e-07
0.000198521
1.30038e-06
0.000216788
1.8864e-06
0.00021672
0.000215931
2.31149e-06
3.68682e-07
0.000198152
7.73369e-07
0.000216384
1.10185e-06
0.000216391
0.000215739
1.29343e-06
1.5485e-07
0.000197997
3.36877e-07
0.000216202
4.53324e-07
0.000216275
0.00021574
4.52564e-07
-1.9343e-08
0.000198017
-1.96666e-08
0.000216202
-7.76732e-08
0.000216333
0.000215899
-2.3645e-07
-1.58985e-07
0.000198175
-3.08597e-07
0.000216352
-5.09582e-07
0.000216534
0.000216186
-7.9646e-07
-2.75232e-07
0.000198451
-5.45473e-07
0.000216622
-8.59704e-07
0.000216848
0.000216574
-1.24757e-06
-3.66951e-07
0.000198818
-7.33538e-07
0.000216988
-1.13791e-06
0.000217253
0.000217041
-1.60481e-06
-4.38255e-07
0.000199256
-8.79897e-07
0.00021743
-1.3539e-06
0.000217727
0.000217568
-1.88087e-06
-4.92195e-07
0.000199748
-9.90813e-07
0.000217929
-1.51711e-06
0.000218253
0.000218139
-2.08821e-06
-5.31514e-07
0.00020028
-1.07193e-06
0.000218469
-1.63584e-06
0.000218817
0.00021874
-2.23751e-06
-5.58553e-07
0.000200838
-1.12796e-06
0.000219038
-1.71713e-06
0.000219406
0.000219361
-2.33792e-06
-5.75315e-07
0.000201413
-1.16293e-06
0.000219626
-1.76712e-06
0.00022001
0.000219992
-2.39758e-06
-5.83573e-07
0.000201997
-1.1804e-06
0.000220223
-1.79111e-06
0.000220621
0.000220624
-2.42349e-06
-5.84809e-07
0.000202582
-1.18343e-06
0.000220822
-1.79366e-06
0.000221231
0.000221252
-2.42152e-06
-5.80245e-07
0.000203162
-1.1747e-06
0.000221416
-1.77863e-06
0.000221835
0.00022187
-2.39676e-06
-5.70958e-07
0.000203733
-1.15647e-06
0.000222001
-1.74937e-06
0.000222428
0.000222474
-2.35374e-06
-5.57985e-07
0.000204291
-1.13056e-06
0.000222574
-1.70891e-06
0.000223006
0.000223062
-2.29625e-06
-5.42191e-07
0.000204833
-1.09864e-06
0.000223131
-1.65975e-06
0.000223567
0.000223629
-2.22755e-06
-5.24187e-07
0.000205357
-1.06223e-06
0.000223669
-1.60394e-06
0.000224109
0.000224176
-2.15045e-06
-5.04523e-07
0.000205862
-1.02257e-06
0.000224187
-1.54325e-06
0.00022463
0.0002247
-2.06731e-06
-4.83719e-07
0.000206346
-9.80597e-07
0.000224683
-1.47922e-06
0.000225128
0.000225201
-1.98002e-06
-4.62226e-07
0.000206808
-9.37147e-07
0.000225158
-1.41312e-06
0.000225604
0.000225678
-1.89021e-06
-4.40384e-07
0.000207248
-8.9293e-07
0.000225611
-1.34598e-06
0.000226057
0.000226131
-1.79925e-06
-4.18467e-07
0.000207667
-8.4852e-07
0.000226041
-1.27864e-06
0.000226488
0.000226561
-1.70828e-06
-3.96683e-07
0.000208063
-8.04394e-07
0.000226449
-1.21182e-06
0.000226895
0.000226967
-1.61818e-06
-3.75232e-07
0.000208438
-7.60936e-07
0.000226834
-1.14607e-06
0.00022728
0.000227351
-1.52967e-06
-3.5426e-07
0.000208793
-7.1846e-07
0.000227199
-1.08182e-06
0.000227644
0.000227712
-1.44333e-06
-3.3388e-07
0.000209127
-6.77192e-07
0.000227542
-1.01944e-06
0.000227986
0.000228052
-1.35959e-06
-3.1419e-07
0.000209441
-6.37288e-07
0.000227865
-9.59182e-07
0.000228308
0.000228372
-1.2788e-06
-2.95245e-07
0.000209736
-5.98889e-07
0.000228169
-9.01247e-07
0.00022861
0.000228672
-1.20117e-06
-2.77092e-07
0.000210013
-5.62095e-07
0.000228454
-8.45757e-07
0.000228894
0.000228953
-1.12687e-06
-2.59763e-07
0.000210273
-5.2697e-07
0.000228721
-7.92782e-07
0.000229159
0.000229216
-1.05602e-06
-2.43262e-07
0.000210516
-4.93528e-07
0.000228971
-7.42367e-07
0.000229408
0.000229463
-9.8864e-07
-2.27596e-07
0.000210744
-4.61779e-07
0.000229205
-6.94532e-07
0.000229641
0.000229693
-9.24738e-07
-2.1276e-07
0.000210956
-4.31717e-07
0.000229424
-6.4925e-07
0.000229859
0.000229908
-8.64264e-07
-1.98741e-07
0.000211155
-4.03316e-07
0.000229629
-6.06479e-07
0.000230062
0.000230108
-8.0716e-07
-1.85526e-07
0.000211341
-3.76531e-07
0.00022982
-5.66153e-07
0.000230251
0.000230296
-7.53357e-07
-1.73098e-07
0.000211514
-3.51313e-07
0.000229998
-5.28215e-07
0.000230428
0.00023047
-7.02761e-07
-1.61408e-07
0.000211675
-3.27619e-07
0.000230164
-4.92573e-07
0.000230593
0.000230633
-6.55247e-07
-1.50435e-07
0.000211826
-3.05401e-07
0.000230319
-4.5914e-07
0.000230747
0.000230784
-6.10683e-07
-1.40163e-07
0.000211966
-2.84578e-07
0.000230464
-4.27817e-07
0.00023089
0.000230926
-5.68961e-07
-1.30551e-07
0.000212096
-2.65099e-07
0.000230598
-3.98513e-07
0.000231024
0.000231057
-5.29959e-07
-1.21573e-07
0.000212218
-2.46903e-07
0.000230724
-3.71151e-07
0.000231148
0.000231179
-4.93527e-07
-1.13185e-07
0.000212331
-2.29927e-07
0.00023084
-3.45619e-07
0.000231264
0.000231293
-4.59535e-07
-1.05375e-07
0.000212436
-2.14101e-07
0.000230949
-3.21813e-07
0.000231371
0.000231399
-4.27859e-07
-9.81105e-08
0.000212535
-1.99356e-07
0.00023105
-2.99654e-07
0.000231472
0.000231498
-3.98375e-07
-9.13539e-08
0.000212626
-1.8564e-07
0.000231145
-2.79053e-07
0.000231565
0.00023159
-3.70973e-07
-8.50697e-08
0.000212711
-1.72902e-07
0.000231232
-2.5993e-07
0.000231652
0.000231676
-3.45522e-07
-7.92286e-08
0.00021279
-1.61092e-07
0.000231314
-2.42179e-07
0.000231733
0.000231755
-3.21905e-07
-7.38208e-08
0.000212864
-1.50149e-07
0.000231391
-2.25727e-07
0.000231809
0.00023183
-3.00021e-07
-6.88183e-08
0.000212933
-1.40013e-07
0.000231462
-2.1049e-07
0.000231879
0.000231899
-2.79778e-07
-6.41952e-08
0.000212997
-1.30639e-07
0.000231528
-1.96418e-07
0.000231945
0.000231964
-2.61075e-07
-5.99259e-08
0.000213057
-1.21991e-07
0.00023159
-1.83442e-07
0.000232006
0.000232024
-2.43813e-07
-5.59871e-08
0.000213113
-1.1403e-07
0.000231648
-1.71475e-07
0.000232064
0.00023208
-2.27913e-07
-5.23693e-08
0.000213165
-1.06707e-07
0.000231703
-1.60469e-07
0.000232118
0.000232133
-2.1329e-07
-4.90545e-08
0.000213214
-9.99798e-08
0.000231754
-1.50376e-07
0.000232168
0.000232183
-1.99878e-07
-4.60194e-08
0.00021326
-9.38208e-08
0.000231801
-1.41138e-07
0.000232215
0.000232229
-1.87608e-07
-4.3241e-08
0.000213303
-8.82064e-08
0.000231846
-1.32712e-07
0.00023226
0.000232273
-1.76409e-07
-4.07142e-08
0.000213344
-8.30998e-08
0.000231889
-1.25045e-07
0.000232302
0.000232314
-1.66218e-07
-3.8422e-08
0.000213383
-7.84722e-08
0.000231929
-1.18098e-07
0.000232341
0.000232353
-1.5699e-07
-3.63577e-08
0.000213419
-7.42996e-08
0.000231967
-1.11834e-07
0.000232379
0.00023239
-1.48679e-07
-3.45022e-08
0.000213453
-7.05642e-08
0.000232003
-1.06228e-07
0.000232415
0.000232425
-1.41235e-07
-3.2857e-08
0.000213486
-6.72357e-08
0.000232037
-1.01242e-07
0.000232449
0.000232458
-1.34619e-07
-3.1398e-08
0.000213518
-6.43106e-08
0.00023207
-9.68505e-08
0.000232481
0.00023249
-1.28786e-07
-3.01385e-08
0.000213548
-6.17554e-08
0.000232102
-9.30285e-08
0.000232512
0.000232521
-1.23716e-07
-2.90499e-08
0.000213577
-5.95719e-08
0.000232132
-8.97564e-08
0.000232543
0.00023255
-1.19382e-07
-2.81422e-08
0.000213605
-5.77432e-08
0.000232162
-8.70185e-08
0.000232572
0.000232579
-1.15757e-07
-2.73989e-08
0.000213632
-5.62587e-08
0.000232191
-8.48108e-08
0.0002326
0.000232607
-1.12819e-07
-2.6818e-08
0.000213659
-5.51167e-08
0.000232219
-8.31034e-08
0.000232628
0.000232635
-1.10555e-07
-2.63992e-08
0.000213686
-5.4305e-08
0.000232247
-8.18921e-08
0.000232656
0.000232662
-1.08956e-07
-2.61458e-08
0.000213712
-5.38188e-08
0.000232275
-8.11728e-08
0.000232683
0.000232689
-1.08017e-07
-2.60543e-08
0.000213738
-5.36629e-08
0.000232302
-8.09554e-08
0.000232711
0.000232715
-1.07728e-07
-2.61251e-08
0.000213764
-5.38314e-08
0.00023233
-8.12248e-08
0.000232738
0.000232742
-1.08099e-07
-2.63513e-08
0.00021379
-5.43306e-08
0.000232358
-8.19844e-08
0.000232766
0.000232769
-1.09122e-07
-2.67325e-08
0.000213817
-5.51581e-08
0.000232386
-8.32496e-08
0.000232794
0.000232797
-1.10806e-07
-2.72889e-08
0.000213844
-5.6324e-08
0.000232415
-8.50189e-08
0.000232822
0.000232825
-1.13166e-07
-2.8012e-08
0.000213872
-5.78433e-08
0.000232445
-8.73096e-08
0.000232852
0.000232854
-1.1622e-07
-2.89141e-08
0.000213901
-5.97126e-08
0.000232476
-9.0138e-08
0.000232882
0.000232884
-1.19989e-07
-3.00004e-08
0.000213931
-6.1946e-08
0.000232508
-9.35215e-08
0.000232914
0.000232915
-1.24495e-07
-3.12575e-08
0.000213962
-6.45698e-08
0.000232541
-9.74795e-08
0.000232947
0.000232947
-1.29766e-07
-3.27164e-08
0.000213995
-6.75868e-08
0.000232576
-1.02038e-07
0.000232981
0.000232981
-1.35834e-07
-3.43771e-08
0.000214029
-7.10285e-08
0.000232613
-1.07225e-07
0.000233017
0.000233016
-1.42745e-07
-3.62589e-08
0.000214066
-7.49081e-08
0.000232651
-1.13078e-07
0.000233056
0.000233054
-1.50542e-07
-3.83686e-08
0.000214104
-7.92517e-08
0.000232692
-1.19641e-07
0.000233096
0.000233093
-1.5927e-07
-4.07165e-08
0.000214145
-8.40897e-08
0.000232736
-1.2694e-07
0.000233139
0.000233136
-1.68986e-07
-4.33088e-08
0.000214188
-8.94566e-08
0.000232782
-1.3503e-07
0.000233184
0.00023318
-1.79738e-07
-4.6176e-08
0.000214234
-9.5379e-08
0.000232831
-1.43954e-07
0.000233233
0.000233228
-1.91623e-07
-4.93285e-08
0.000214284
-1.01893e-07
0.000232883
-1.53778e-07
0.000233285
0.000233279
-2.04695e-07
-5.28022e-08
0.000214336
-1.09044e-07
0.00023294
-1.64563e-07
0.00023334
0.000233333
-2.19049e-07
-5.66165e-08
0.000214393
-1.16881e-07
0.000233
-1.76377e-07
0.0002334
0.000233392
-2.34765e-07
-6.07897e-08
0.000214454
-1.25449e-07
0.000233065
-1.893e-07
0.000233464
0.000233454
-2.51957e-07
-6.53346e-08
0.000214519
-1.34802e-07
0.000233134
-2.03408e-07
0.000233532
0.000233522
-2.70713e-07
-7.02857e-08
0.000214589
-1.45005e-07
0.000233209
-2.18773e-07
0.000233606
0.000233594
-2.91167e-07
-7.56718e-08
0.000214665
-1.56109e-07
0.000233289
-2.35522e-07
0.000233686
0.000233672
-3.13438e-07
-8.15437e-08
0.000214746
-1.68206e-07
0.000233376
-2.53754e-07
0.000233771
0.000233756
-3.37691e-07
-8.79392e-08
0.000214834
-1.81362e-07
0.000233469
-2.73582e-07
0.000233863
0.000233846
-3.64067e-07
-9.48902e-08
0.000214929
-1.95664e-07
0.00023357
-2.95133e-07
0.000233963
0.000233944
-3.92737e-07
-1.02443e-07
0.000215032
-2.11199e-07
0.000233679
-3.18552e-07
0.00023407
0.000234049
-4.23876e-07
-1.10639e-07
0.000215142
-2.28068e-07
0.000233796
-3.43974e-07
0.000234186
0.000234163
-4.57691e-07
-1.19535e-07
0.000215262
-2.46391e-07
0.000233923
-3.71575e-07
0.000234311
0.000234286
-4.94399e-07
-1.29199e-07
0.000215391
-2.66265e-07
0.00023406
-4.01535e-07
0.000234446
0.000234419
-5.34243e-07
-1.39689e-07
0.000215531
-2.87845e-07
0.000234208
-4.34044e-07
0.000234593
0.000234562
-5.77478e-07
-1.51083e-07
0.000215682
-3.11252e-07
0.000234369
-4.69319e-07
0.000234751
0.000234717
-6.24392e-07
-1.63437e-07
0.000215845
-3.36649e-07
0.000234542
-5.07592e-07
0.000234922
0.000234885
-6.75275e-07
-1.76836e-07
0.000216022
-3.64206e-07
0.000234729
-5.49104e-07
0.000235107
0.000235066
-7.30474e-07
-1.91373e-07
0.000216213
-3.94092e-07
0.000234932
-5.94139e-07
0.000235307
0.000235262
-7.90344e-07
-2.07133e-07
0.000216421
-4.26521e-07
0.000235151
-6.42987e-07
0.000235523
0.000235475
-8.55298e-07
-2.24244e-07
0.000216645
-4.61701e-07
0.000235389
-6.95986e-07
0.000235757
0.000235704
-9.25756e-07
-2.42812e-07
0.000216888
-4.99874e-07
0.000235646
-7.53486e-07
0.000236011
0.000235953
-1.0022e-06
-2.62963e-07
0.000217151
-5.41297e-07
0.000235924
-8.15878e-07
0.000236286
0.000236222
-1.08514e-06
-2.84839e-07
0.000217435
-5.86252e-07
0.000236225
-8.83582e-07
0.000236583
0.000236514
-1.17512e-06
-3.08578e-07
0.000217744
-6.35044e-07
0.000236552
-9.57055e-07
0.000236905
0.00023683
-1.27278e-06
-3.34349e-07
0.000218078
-6.88007e-07
0.000236906
-1.03682e-06
0.000237254
0.000237172
-1.37877e-06
-3.62343e-07
0.000218441
-7.45518e-07
0.000237289
-1.12341e-06
0.000237632
0.000237542
-1.49385e-06
-3.9275e-07
0.000218833
-8.07981e-07
0.000237704
-1.21746e-06
0.000238041
0.000237943
-1.61881e-06
-4.25789e-07
0.000219259
-8.75839e-07
0.000238154
-1.31961e-06
0.000238485
0.000238378
-1.75453e-06
-4.61696e-07
0.000219721
-9.49573e-07
0.000238642
-1.43061e-06
0.000238966
0.00023885
-1.90198e-06
-5.00727e-07
0.000220222
-1.02973e-06
0.000239171
-1.55126e-06
0.000239487
0.000239361
-2.06222e-06
-5.43181e-07
0.000220765
-1.11689e-06
0.000239745
-1.68242e-06
0.000240053
0.000239915
-2.23643e-06
-5.89374e-07
0.000221354
-1.21171e-06
0.000240367
-1.8251e-06
0.000240666
0.000240515
-2.42587e-06
-6.39647e-07
0.000221994
-1.3149e-06
0.000241042
-1.98034e-06
0.000241332
0.000241167
-2.63198e-06
-6.94393e-07
0.000222688
-1.42724e-06
0.000241775
-2.14933e-06
0.000242054
0.000241874
-2.8563e-06
-7.54046e-07
0.000223442
-1.54962e-06
0.000242571
-2.33337e-06
0.000242838
0.000242641
-3.10057e-06
-8.19082e-07
0.000224261
-1.683e-06
0.000243435
-2.53393e-06
0.000243689
0.000243474
-3.36669e-06
-8.90037e-07
0.000225151
-1.82846e-06
0.000244373
-2.75261e-06
0.000244613
0.000244378
-3.65679e-06
-9.67493e-07
0.000226119
-1.98719e-06
0.000245393
-2.99118e-06
0.000245617
0.00024536
-3.97321e-06
-1.0521e-06
0.000227171
-2.16052e-06
0.000246501
-3.25164e-06
0.000246708
0.000246427
-4.31856e-06
-1.14457e-06
0.000228315
-2.34995e-06
0.000247706
-3.53618e-06
0.000247894
0.000247587
-4.69574e-06
-1.24575e-06
0.000229561
-2.5571e-06
0.000249018
-3.84729e-06
0.000249184
0.000248847
-5.108e-06
-1.35655e-06
0.000230918
-2.78387e-06
0.000250445
-4.18774e-06
0.000250588
0.000250219
-5.55901e-06
-1.478e-06
0.000232396
-3.03233e-06
0.000251999
-4.56063e-06
0.000252116
0.000251711
-6.05281e-06
-1.61128e-06
0.000234007
-3.30485e-06
0.000253693
-4.96949e-06
0.000253781
0.000253335
-6.59402e-06
-1.75771e-06
0.000235765
-3.60411e-06
0.000255539
-5.41826e-06
0.000255595
0.000255105
-7.18779e-06
-1.91879e-06
0.000237683
-3.93311e-06
0.000257554
-5.91141e-06
0.000257573
0.000257033
-7.83998e-06
-2.09624e-06
0.00023978
-4.29528e-06
0.000259753
-6.45402e-06
0.000259732
0.000259137
-8.5572e-06
-2.29198e-06
0.000242072
-4.69454e-06
0.000262155
-7.05187e-06
0.000262089
0.000261432
-9.34699e-06
-2.50826e-06
0.00024458
-5.13535e-06
0.000264782
-7.71156e-06
0.000264666
0.000263938
-1.02179e-05
-2.74764e-06
0.000247327
-5.62285e-06
0.000267658
-8.44067e-06
0.000267484
0.000266677
-1.11798e-05
-3.01309e-06
0.000250341
-6.16297e-06
0.000270808
-9.24792e-06
0.000270568
0.000269673
-1.2244e-05
-3.30805e-06
0.000253649
-6.76258e-06
0.000274262
-1.01434e-05
0.000273949
0.000272954
-1.34236e-05
-3.63655e-06
0.000257285
-7.42964e-06
0.000278055
-1.11387e-05
0.000277658
0.000276548
-1.47335e-05
-4.00328e-06
0.000261288
-8.17347e-06
0.000282225
-1.22476e-05
0.000281732
0.000280492
-1.61913e-05
-4.41375e-06
0.000265702
-9.00498e-06
0.000286817
-1.34859e-05
0.000286213
0.000284823
-1.78174e-05
-4.87448e-06
0.000270577
-9.93704e-06
0.000291879
-1.48725e-05
0.000291149
0.000289587
-1.96359e-05
-5.39324e-06
0.00027597
-1.09849e-05
0.000297471
-1.64294e-05
0.000296593
0.000294833
-2.16752e-05
-5.97932e-06
0.000281949
-1.21669e-05
0.000303658
-1.81831e-05
0.000302609
0.000300618
-2.39686e-05
-6.6439e-06
0.000288593
-1.35048e-05
0.000310519
-2.01651e-05
0.00030927
0.000307009
-2.65562e-05
-7.4005e-06
0.000295994
-1.50249e-05
0.000318144
-2.24134e-05
0.000316658
0.000314082
-2.94858e-05
-8.26565e-06
0.000304259
-1.67595e-05
0.000326637
-2.4974e-05
0.000324873
0.000321923
-3.28153e-05
-9.25972e-06
0.000313519
-1.87478e-05
0.000336126
-2.79031e-05
0.000334028
0.000330635
-3.66148e-05
-1.04079e-05
0.000323927
-2.10385e-05
0.000346756
-3.12698e-05
0.000344259
0.000340335
-4.09701e-05
-1.17417e-05
0.000335669
-2.36921e-05
0.000358706
-3.51596e-05
0.000355727
0.000351162
-4.59867e-05
-1.3301e-05
0.000348969
-2.67846e-05
0.00037219
-3.96796e-05
0.000368622
0.000363278
-5.17958e-05
-1.51365e-05
0.000364106
-3.04127e-05
0.000387466
-4.49648e-05
0.000383174
0.000376875
-5.85615e-05
-1.73136e-05
0.00038142
-3.47004e-05
0.000404853
-5.11874e-05
0.000399661
0.000392178
-6.64909e-05
-1.99179e-05
0.000401337
-3.98084e-05
0.000424744
-5.8569e-05
0.000418422
0.000409458
-7.58482e-05
-2.30621e-05
0.000424399
-4.59481e-05
0.00044763
-6.73985e-05
0.000439872
0.000429032
-8.69732e-05
-2.68971e-05
0.000451297
-5.3401e-05
0.000474133
-7.80567e-05
0.000464528
0.000451284
-0.000100308
-3.16295e-05
0.000482926
-6.25477e-05
0.000505052
-9.10528e-05
0.000493033
0.000476666
-0.000116435
-3.75407e-05
0.000520467
-7.391e-05
0.000541421
-0.000107077
0.000526199
0.000505715
-0.000136126
-4.50361e-05
0.000565503
-8.82174e-05
0.000584602
-0.000127078
0.00056506
0.000539062
-0.000160426
-5.46797e-05
0.000620183
-0.000106507
0.00063643
-0.000152385
0.000610938
0.000577429
-0.000190752
-6.72962e-05
0.000687479
-0.000130269
0.000699402
-0.000184889
0.000665558
0.000621617
-0.000229077
-8.42258e-05
0.000771705
-0.000161773
0.00077695
-0.00022732
0.000731105
0.000672431
-0.000278135
-0.000106897
0.000878602
-0.000204129
0.000874181
-0.000283803
0.000810779
0.000730554
-0.000341926
-0.000139339
0.00101794
-0.000262953
0.000997795
-0.000360272
0.000908098
0.00079617
-0.000425887
-0.000182781
0.00120072
-0.000344433
0.00115945
-0.000467315
0.00103098
0.000868427
-0.000539573
-0.000243775
0.0014445
-0.000460489
0.00137616
-0.000617315
0.00118781
0.000944133
-0.000693021
-0.000346401
0.0017909
-0.00063481
0.00166457
-0.000846813
0.00139981
0.00102153
-0.00092421
-0.000399883
0.00219078
-0.000802949
0.00206764
-0.00114109
0.00173795
0.00111773
-0.00123729
-0.000765987
-0.00140134
-0.00178134
-0.00194906
0.000266219
-0.000328954
0.000514364
-0.000252291
0.000700992
-2.27616e-05
0.000768377
0.000248854
0.000747881
0.00043056
0.000677243
0.000506695
0.000586415
0.000503702
0.00049975
0.000457726
0.000433547
0.000393819
0.0003888
0.000324569
0.000357487
0.000259472
0.000332992
0.000205458
0.000312488
0.000163681
0.000295134
0.000131602
0.000280481
0.000106614
0.00026813
8.68588e-05
0.000257745
7.10419e-05
0.000249045
5.82379e-05
0.000241791
4.77736e-05
0.000235778
3.91524e-05
0.000230829
3.20021e-05
0.000226795
2.604e-05
0.000223544
2.10476e-05
0.000220964
1.68553e-05
0.000218956
1.3328e-05
0.000217437
1.03584e-05
0.000216331
7.85897e-06
0.000215576
5.75856e-06
0.000215114
3.99776e-06
0.000214898
2.52749e-06
0.000214886
1.30614e-06
0.00021504
2.98293e-07
0.00021533
-5.26748e-07
0.000215729
-1.19548e-06
0.000216213
-1.73131e-06
0.000216761
-2.15313e-06
0.000217358
-2.4771e-06
0.000217987
-2.71786e-06
0.000218638
-2.88835e-06
0.0002193
-2.99993e-06
0.000219965
-3.0624e-06
0.000220626
-3.08407e-06
0.000221276
-3.07221e-06
0.000221913
-3.03323e-06
0.000222532
-2.97258e-06
0.00022313
-2.89484e-06
0.000223707
-2.80396e-06
0.000224259
-2.70326e-06
0.000224788
-2.5956e-06
0.000225291
-2.48335e-06
0.000225769
-2.36849e-06
0.000226223
-2.25263e-06
0.000226651
-2.1371e-06
0.000227056
-2.02298e-06
0.000227438
-1.91113e-06
0.000227797
-1.80224e-06
0.000228134
-1.69681e-06
0.00022845
-1.59521e-06
0.000228747
-1.49772e-06
0.000229025
-1.40452e-06
0.000229284
-1.31573e-06
0.000229527
-1.23137e-06
0.000229754
-1.15142e-06
0.000229965
-1.07583e-06
0.000230163
-1.00452e-06
0.000230347
-9.37368e-07
0.000230518
-8.7422e-07
0.000230678
-8.14937e-07
0.000230826
-7.59377e-07
0.000230965
-7.07381e-07
0.000231094
-6.58778e-07
0.000231214
-6.13395e-07
0.000231325
-5.71068e-07
0.000231429
-5.31642e-07
0.000231525
-4.94965e-07
0.000231615
-4.60871e-07
0.000231699
-4.29211e-07
0.000231777
-3.99843e-07
0.00023185
-3.72646e-07
0.000231917
-3.47482e-07
0.00023198
-3.24237e-07
0.000232039
-3.02785e-07
0.000232095
-2.83021e-07
0.000232146
-2.64861e-07
0.000232194
-2.48203e-07
0.00023224
-2.32958e-07
0.000232282
-2.19045e-07
0.000232323
-2.06396e-07
0.000232361
-1.94943e-07
0.000232396
-1.84619e-07
0.000232431
-1.75375e-07
0.000232463
-1.67161e-07
0.000232494
-1.59928e-07
0.000232524
-1.5364e-07
0.000232553
-1.48263e-07
0.000232581
-1.43768e-07
0.000232608
-1.40128e-07
0.000232635
-1.37323e-07
0.000232662
-1.35348e-07
0.000232688
-1.34187e-07
0.000232714
-1.33832e-07
0.00023274
-1.34294e-07
0.000232766
-1.35569e-07
0.000232793
-1.37667e-07
0.000232821
-1.4061e-07
0.000232849
-1.44409e-07
0.000232878
-1.49091e-07
0.000232908
-1.54687e-07
0.00023294
-1.61238e-07
0.000232973
-1.68785e-07
0.000233007
-1.77369e-07
0.000233044
-1.87053e-07
0.000233082
-1.97895e-07
0.000233123
-2.09959e-07
0.000233167
-2.23333e-07
0.000233213
-2.38089e-07
0.000233263
-2.54333e-07
0.000233316
-2.72155e-07
0.000233373
-2.91681e-07
0.000233434
-3.13022e-07
0.0002335
-3.3632e-07
0.00023357
-3.6172e-07
0.000233646
-3.89389e-07
0.000233728
-4.19506e-07
0.000233816
-4.52263e-07
0.000233911
-4.87858e-07
0.000234014
-5.26522e-07
0.000234125
-5.68513e-07
0.000234245
-6.14091e-07
0.000234374
-6.63561e-07
0.000234514
-7.17246e-07
0.000234665
-7.75476e-07
0.000234828
-8.38652e-07
0.000235005
-9.0717e-07
0.000235196
-9.81495e-07
0.000235403
-1.06211e-06
0.000235627
-1.14956e-06
0.000235869
-1.24444e-06
0.000236131
-1.34734e-06
0.000236415
-1.459e-06
0.000236722
-1.58016e-06
0.000237055
-1.71167e-06
0.000237416
-1.85442e-06
0.000237806
-2.00941e-06
0.00023823
-2.17773e-06
0.000238688
-2.36056e-06
0.000239185
-2.55925e-06
0.000239724
-2.77519e-06
0.000240308
-3.01e-06
0.000240941
-3.2654e-06
0.000241628
-3.54333e-06
0.000242374
-3.8459e-06
0.000243183
-4.17547e-06
0.00024406
-4.53464e-06
0.000245014
-4.92628e-06
0.000246049
-5.3536e-06
0.000247173
-5.82016e-06
0.000248395
-6.32994e-06
0.000249723
-6.88739e-06
0.000251168
-7.4975e-06
0.00025274
-8.16586e-06
0.000254451
-8.89877e-06
0.000256314
-9.70333e-06
0.000258345
-1.05876e-05
0.000260558
-1.15607e-05
0.000262973
-1.26329e-05
0.00026561
-1.38163e-05
0.00026849
-1.51243e-05
0.000271639
-1.65727e-05
0.000275085
-1.81794e-05
0.000278859
-1.99655e-05
0.000282997
-2.19552e-05
0.000287538
-2.41771e-05
0.000292528
-2.66647e-05
0.000298016
-2.94573e-05
0.000304062
-3.26018e-05
0.00031073
-3.61541e-05
0.000318096
-4.01811e-05
0.000326245
-4.47636e-05
0.000335274
-4.99996e-05
0.000345297
-5.6009e-05
0.00035644
-6.29391e-05
0.000368851
-7.09726e-05
0.000382697
-8.03372e-05
0.000398169
-9.13196e-05
0.000415479
-0.000104283
0.000434863
-0.000119692
0.000456574
-0.000138146
0.000480867
-0.00016042
0.000507974
-0.000187532
0.000538047
-0.000220825
0.000571049
-0.00026208
0.000606586
-0.000313671
0.00064345
-0.00037879
0.000679232
-0.000461669
0.000707709
-0.000568051
0.000719412
-0.000704725
0.000677187
-0.000881985
0.000538766
-0.00109887
-0.00141029
7.458e-05
-0.000403534
0.000137408
-0.000315119
0.000228811
-0.000114165
0.000319408
0.000158257
0.000369459
0.000380509
0.000378338
0.000497818
0.000360244
0.000521799
0.000333749
0.000484223
0.000316143
0.000411425
0.00030679
0.000333923
0.000298592
0.000267671
0.000289136
0.000214913
0.000279071
0.000173746
0.00026924
0.000141433
0.000260104
0.000115751
0.000251873
9.50894e-05
0.000244623
7.82922e-05
0.000238347
6.45139e-05
0.000232995
5.31255e-05
0.000228495
4.36525e-05
0.000224765
3.57316e-05
0.000221724
2.90818e-05
0.000219289
2.3482e-05
0.000217387
1.87578e-05
0.000215946
1.47683e-05
0.000214905
1.14003e-05
0.000214204
8.55976e-06
0.000213793
6.16977e-06
0.000213625
4.16533e-06
0.000213661
2.49187e-06
0.000213864
1.10306e-06
0.000214203
-4.12885e-08
0.000214652
-9.75734e-07
0.000215187
-1.73027e-06
0.000215787
-2.3311e-06
0.000216434
-2.80023e-06
0.000217114
-3.15695e-06
0.000217814
-3.41821e-06
0.000218524
-3.59871e-06
0.000219236
-3.7115e-06
0.000219942
-3.76807e-06
0.000220636
-3.77825e-06
0.000221314
-3.75041e-06
0.000221973
-3.69183e-06
0.000222609
-3.60882e-06
0.000223221
-3.50678e-06
0.000223807
-3.39026e-06
0.000224367
-3.26312e-06
0.0002249
-3.12862e-06
0.000225406
-2.98945e-06
0.000225886
-2.84787e-06
0.000226339
-2.70574e-06
0.000226766
-2.56455e-06
0.000227169
-2.42555e-06
0.000227547
-2.28968e-06
0.000227903
-2.15769e-06
0.000228236
-2.03017e-06
0.000228548
-1.90751e-06
0.000228841
-1.79e-06
0.000229114
-1.67782e-06
0.000229369
-1.57105e-06
0.000229607
-1.4697e-06
0.00022983
-1.37375e-06
0.000230037
-1.28311e-06
0.00023023
-1.19766e-06
0.00023041
-1.11725e-06
0.000230578
-1.0417e-06
0.000230733
-9.70839e-07
0.000230879
-9.04456e-07
0.000231014
-8.42359e-07
0.000231139
-7.84324e-07
0.000231256
-7.30159e-07
0.000231364
-6.79668e-07
0.000231465
-6.32651e-07
0.000231559
-5.88917e-07
0.000231647
-5.4828e-07
0.000231728
-5.10552e-07
0.000231804
-4.75575e-07
0.000231874
-4.43183e-07
0.00023194
-4.13221e-07
0.000232001
-3.8554e-07
0.000232059
-3.60006e-07
0.000232112
-3.36495e-07
0.000232162
-3.14881e-07
0.000232209
-2.95057e-07
0.000232253
-2.76923e-07
0.000232294
-2.60374e-07
0.000232333
-2.45334e-07
0.00023237
-2.31714e-07
0.000232405
-2.19448e-07
0.000232438
-2.08459e-07
0.000232469
-1.98691e-07
0.0002325
-1.90094e-07
0.000232529
-1.82625e-07
0.000232557
-1.76228e-07
0.000232584
-1.7089e-07
0.00023261
-1.66568e-07
0.000232636
-1.6324e-07
0.000232662
-1.60889e-07
0.000232687
-1.59512e-07
0.000232712
-1.59095e-07
0.000232738
-1.59649e-07
0.000232763
-1.61169e-07
0.000232789
-1.63672e-07
0.000232816
-1.67166e-07
0.000232843
-1.71685e-07
0.000232871
-1.77255e-07
0.0002329
-1.83914e-07
0.000232931
-1.91705e-07
0.000232963
-2.00673e-07
0.000232996
-2.10882e-07
0.000233032
-2.22398e-07
0.000233069
-2.35283e-07
0.000233109
-2.49632e-07
0.000233151
-2.65523e-07
0.000233196
-2.8307e-07
0.000233244
-3.02374e-07
0.000233295
-3.23556e-07
0.00023335
-3.46761e-07
0.000233409
-3.72134e-07
0.000233473
-3.99826e-07
0.000233541
-4.30007e-07
0.000233615
-4.6289e-07
0.000233694
-4.98676e-07
0.000233779
-5.37601e-07
0.000233871
-5.79899e-07
0.000233971
-6.25848e-07
0.000234078
-6.7574e-07
0.000234194
-7.29897e-07
0.000234319
-7.88679e-07
0.000234454
-8.52454e-07
0.0002346
-9.21636e-07
0.000234758
-9.96673e-07
0.000234929
-1.07806e-06
0.000235114
-1.16634e-06
0.000235314
-1.2621e-06
0.00023553
-1.36596e-06
0.000235764
-1.47861e-06
0.000236018
-1.60081e-06
0.000236292
-1.73338e-06
0.000236589
-1.87722e-06
0.000236911
-2.03332e-06
0.000237259
-2.20275e-06
0.000237637
-2.38668e-06
0.000238045
-2.5864e-06
0.000238488
-2.80332e-06
0.000238968
-3.03898e-06
0.000239488
-3.2951e-06
0.000240051
-3.57351e-06
0.000240662
-3.87628e-06
0.000241324
-4.20569e-06
0.000242043
-4.56422e-06
0.000242822
-4.95463e-06
0.000243667
-5.37997e-06
0.000244585
-5.84362e-06
0.00024558
-6.34933e-06
0.000246661
-6.90127e-06
0.000247836
-7.5041e-06
0.000249111
-8.163e-06
0.000250497
-8.8838e-06
0.000252005
-9.67298e-06
0.000253644
-1.05379e-05
0.000255427
-1.14867e-05
0.000257368
-1.25288e-05
0.000259482
-1.36747e-05
0.000261786
-1.49364e-05
0.000264297
-1.63275e-05
0.000267036
-1.78636e-05
0.000270026
-1.95625e-05
0.000273292
-2.1445e-05
0.000276861
-2.35347e-05
0.000280765
-2.58592e-05
0.000285038
-2.84507e-05
0.00028972
-3.13465e-05
0.000294854
-3.45909e-05
0.000300488
-3.82357e-05
0.000306676
-4.23426e-05
0.00031348
-4.69849e-05
0.000320967
-5.22506e-05
0.000329213
-5.82452e-05
0.000338301
-6.5097e-05
0.000348323
-7.29615e-05
0.00035938
-8.20294e-05
0.000371578
-9.25354e-05
0.000385028
-0.00010477
0.00039984
-0.000119095
0.00041611
-0.000135962
0.000433905
-0.000155941
0.000453234
-0.000179749
0.000473994
-0.000208292
0.000495887
-0.000242718
0.000518279
-0.000284472
0.000539965
-0.000335358
0.00055876