/*--------------------------------*- C++ -*----------------------------------*\
  =========                 |
  \\      /  F ield         | OpenFOAM: The Open Source CFD Toolbox
   \\    /   O peration     | Website:  https://openfoam.org
    \\  /    A nd           | Version:  dev
     \\/     M anipulation  |
\*---------------------------------------------------------------------------*/
FoamFile
{
    version     2.0;
    format      ascii;
    class       volVectorField;
    location    "7";
    object      U;
}
// * * * * * * * * * * * * * * * * * * * * * * * * * * * * * * * * * * * * * //

dimensions      [0 1 -1 0 0 0 0];

internalField   nonuniform List<vector> 
8000
(
(0.0996971 0.000250208 0)
(0.100066 0.00033617 0)
(0.100513 -0.000476083 0)
(0.0990043 0.000250781 0)
(0.0987498 0.000955488 0)
(0.100017 0.00234097 0)
(0.102097 0.00200508 0)
(0.103755 0.00442497 0)
(0.0965204 0.00196793 0)
(0.0985449 0.00558621 0)
(0.100954 0.00840462 0)
(0.106815 0.0135268 0)
(0.0920348 0.00314558 0)
(0.0943637 0.00867679 0)
(0.09525 0.0149654 0)
(0.101783 0.023709 0)
(0.0852563 0.00419591 0)
(0.0875273 0.0106379 0)
(0.0863947 0.0187393 0)
(0.0904471 0.0304087 0)
(0.0772261 0.0049046 0)
(0.0793316 0.0113898 0)
(0.0765387 0.0199205 0)
(0.0772025 0.0321321 0)
(0.0691062 0.00540063 0)
(0.0708034 0.011389 0)
(0.0672923 0.0198271 0)
(0.0652235 0.0303851 0)
(0.0611166 0.00593829 0)
(0.0627791 0.0111812 0)
(0.0593254 0.0192693 0)
(0.055382 0.0276997 0)
(0.0528346 0.00609339 0)
(0.0553191 0.010681 0)
(0.0524022 0.0181819 0)
(0.0476404 0.0249958 0)
(0.0451626 0.00524953 0)
(0.0485903 0.00940247 0)
(0.0462869 0.0161572 0)
(0.0416108 0.0217902 0)
(0.039066 0.0038067 0)
(0.0427777 0.0075497 0)
(0.0409944 0.0134122 0)
(0.0370143 0.0179764 0)
(0.0345455 0.00255959 0)
(0.0379315 0.00583068 0)
(0.036593 0.010671 0)
(0.0335018 0.0142776 0)
(0.0311474 0.00178242 0)
(0.0340086 0.0045702 0)
(0.0330358 0.00839649 0)
(0.0306995 0.0112528 0)
(0.0284763 0.00133981 0)
(0.0309085 0.0036824 0)
(0.0301979 0.00663936 0)
(0.0284127 0.00894204 0)
(0.0263093 0.00105625 0)
(0.0284655 0.00300836 0)
(0.0279349 0.00529901 0)
(0.0265445 0.00717697 0)
(0.0245322 0.00084497 0)
(0.0265223 0.00246692 0)
(0.0261141 0.00426458 0)
(0.025015 0.00580284 0)
(0.0230741 0.00067822 0)
(0.0249603 0.00202489 0)
(0.0246378 0.00345324 0)
(0.0237592 0.0047166 0)
(0.0218786 0.000545723 0)
(0.0236952 0.00166274 0)
(0.0234348 0.00280806 0)
(0.0227264 0.00384724 0)
(0.0208989 0.000440217 0)
(0.0226652 0.00136504 0)
(0.0224519 0.00228915 0)
(0.0218765 0.00314388 0)
(0.0200964 0.000355671 0)
(0.0218246 0.00111929 0)
(0.021648 0.00186777 0)
(0.0211779 0.0025695 0)
(0.0194404 0.0002874 0)
(0.021138 0.000915576 0)
(0.0209914 0.00152277 0)
(0.0206051 0.00209679 0)
(0.0189055 0.00023185 0)
(0.020578 0.000746084 0)
(0.0204565 0.00123828 0)
(0.0201376 0.00170528 0)
(0.0184713 0.000186317 0)
(0.0201229 0.000604599 0)
(0.0200229 0.00100224 0)
(0.0197585 0.00137935 0)
(0.0181211 0.000148748 0)
(0.0197552 0.000486197 0)
(0.0196739 0.000805431 0)
(0.0194539 0.00110701 0)
(0.0178412 0.000117578 0)
(0.0194607 0.000386933 0)
(0.0193957 0.000640722 0)
(0.0192121 0.000878837 0)
(0.0176202 9.16214e-05 0)
(0.0192275 0.00030364 0)
(0.0191768 0.000502574 0)
(0.0190234 0.000687387 0)
(0.0174485 6.99502e-05 0)
(0.019046 0.000233716 0)
(0.0190079 0.000386583 0)
(0.0188795 0.000526661 0)
(0.0173183 5.18342e-05 0)
(0.0189078 0.000175052 0)
(0.0188807 0.000289199 0)
(0.0187734 0.000391832 0)
(0.0172228 3.66949e-05 0)
(0.0188061 0.000125915 0)
(0.0187885 0.000207567 0)
(0.0186989 0.000278918 0)
(0.0171564 2.40579e-05 0)
(0.0187349 8.48463e-05 0)
(0.0187255 0.000139311 0)
(0.018651 0.00018464 0)
(0.0171143 1.35424e-05 0)
(0.0186892 5.06763e-05 0)
(0.0186869 8.25146e-05 0)
(0.0186251 0.000106284 0)
(0.0170923 4.76851e-06 0)
(0.0186646 2.23504e-05 0)
(0.0186684 3.55133e-05 0)
(0.0186176 4.15508e-05 0)
(0.0170873 -2.31336e-06 0)
(0.0186575 -7.20761e-07 0)
(0.0186665 -2.95556e-06 0)
(0.018625 -1.14876e-05 0)
(0.0170954 -7.81203e-06 0)
(0.0186644 -1.93588e-05 0)
(0.0186781 -3.42334e-05 0)
(0.0186447 -5.46322e-05 0)
(0.0171144 -1.25802e-05 0)
(0.0186829 -3.47853e-05 0)
(0.0187008 -5.97207e-05 0)
(0.0186741 -8.9449e-05 0)
(0.0171425 -1.63176e-05 0)
(0.0187108 -4.69849e-05 0)
(0.0187322 -7.99706e-05 0)
(0.0187114 -0.000117127 0)
(0.0171776 -1.92007e-05 0)
(0.018746 -5.64836e-05 0)
(0.0187704 -9.57181e-05 0)
(0.0187546 -0.000138562 0)
(0.017218 -2.13635e-05 0)
(0.0187869 -6.36861e-05 0)
(0.0188138 -0.000107643 0)
(0.0188022 -0.000154714 0)
(0.0172624 -2.29244e-05 0)
(0.0188319 -6.89557e-05 0)
(0.0188611 -0.000116355 0)
(0.018853 -0.000166417 0)
(0.0173096 -2.39828e-05 0)
(0.01888 -7.26006e-05 0)
(0.018911 -0.000122355 0)
(0.0189059 -0.000174383 0)
(0.0173587 -2.46218e-05 0)
(0.0189301 -7.48843e-05 0)
(0.0189627 -0.00012608 0)
(0.0189601 -0.000179224 0)
(0.0174088 -2.49087e-05 0)
(0.0189814 -7.60384e-05 0)
(0.0190152 -0.000127925 0)
(0.0190147 -0.000181461 0)
(0.0174593 -2.49032e-05 0)
(0.0190331 -7.62586e-05 0)
(0.019068 -0.000128221 0)
(0.0190692 -0.000181554 0)
(0.0175097 -2.46657e-05 0)
(0.0190846 -7.57117e-05 0)
(0.0191205 -0.00012724 0)
(0.019123 -0.000179901 0)
(0.0175595 -2.42445e-05 0)
(0.0191356 -7.45436e-05 0)
(0.0191722 -0.000125224 0)
(0.0191758 -0.000176845 0)
(0.0176082 -2.3671e-05 0)
(0.0191857 -7.2883e-05 0)
(0.0192228 -0.000122387 0)
(0.0192273 -0.000172669 0)
(0.0176557 -2.29734e-05 0)
(0.0192345 -7.08413e-05 0)
(0.019272 -0.000118913 0)
(0.0192772 -0.00016762 0)
(0.0177018 -2.2184e-05 0)
(0.0192817 -6.85084e-05 0)
(0.0193197 -0.000114956 0)
(0.0193253 -0.000161916 0)
(0.0177462 -2.13331e-05 0)
(0.0193273 -6.59583e-05 0)
(0.0193655 -0.000110645 0)
(0.0193716 -0.000155735 0)
(0.0177889 -2.04421e-05 0)
(0.0193711 -6.32558e-05 0)
(0.0194096 -0.000106087 0)
(0.0194158 -0.000149228 0)
(0.0178297 -1.95251e-05 0)
(0.0194131 -6.04577e-05 0)
(0.0194516 -0.000101372 0)
(0.019458 -0.000142519 0)
(0.0178687 -1.85926e-05 0)
(0.0194531 -5.76103e-05 0)
(0.0194917 -9.65774e-05 0)
(0.0194982 -0.000135714 0)
(0.0179057 -1.76561e-05 0)
(0.0194912 -5.47505e-05 0)
(0.0195298 -9.17651e-05 0)
(0.0195363 -0.000128896 0)
(0.0179409 -1.67264e-05 0)
(0.0195274 -5.1908e-05 0)
(0.019566 -8.69865e-05 0)
(0.0195723 -0.000122134 0)
(0.0179742 -1.58137e-05 0)
(0.0195616 -4.91075e-05 0)
(0.0196002 -8.22814e-05 0)
(0.0196064 -0.000115485 0)
(0.0180057 -1.4924e-05 0)
(0.019594 -4.63687e-05 0)
(0.0196325 -7.7682e-05 0)
(0.0196386 -0.000108994 0)
(0.0180354 -1.40608e-05 0)
(0.0196245 -4.37066e-05 0)
(0.0196629 -7.32137e-05 0)
(0.0196689 -0.000102695 0)
(0.0180634 -1.32269e-05 0)
(0.0196533 -4.1133e-05 0)
(0.0196916 -6.88954e-05 0)
(0.0196973 -9.66116e-05 0)
(0.0180897 -1.2424e-05 0)
(0.0196803 -3.86568e-05 0)
(0.0197185 -6.47415e-05 0)
(0.0197241 -9.0763e-05 0)
(0.0181144 -1.16545e-05 0)
(0.0197057 -3.62841e-05 0)
(0.0197438 -6.07617e-05 0)
(0.0197491 -8.51631e-05 0)
(0.0181375 -1.09203e-05 0)
(0.0197295 -3.40184e-05 0)
(0.0197675 -5.69618e-05 0)
(0.0197726 -7.98203e-05 0)
(0.0181592 -1.02219e-05 0)
(0.0197518 -3.18609e-05 0)
(0.0197897 -5.33445e-05 0)
(0.0197946 -7.4738e-05 0)
(0.0181795 -9.5599e-06 0)
(0.0197727 -2.98129e-05 0)
(0.0198105 -4.99104e-05 0)
(0.0198151 -6.99171e-05 0)
(0.0181985 -8.93388e-06 0)
(0.0197923 -2.78741e-05 0)
(0.0198299 -4.66574e-05 0)
(0.0198343 -6.53549e-05 0)
(0.0182163 -8.34243e-06 0)
(0.0198106 -2.60423e-05 0)
(0.0198481 -4.35835e-05 0)
(0.0198523 -6.10468e-05 0)
(0.0182328 -7.78414e-06 0)
(0.0198276 -2.4315e-05 0)
(0.019865 -4.06852e-05 0)
(0.019869 -5.69858e-05 0)
(0.0182483 -7.25832e-06 0)
(0.0198435 -2.26895e-05 0)
(0.0198808 -3.79582e-05 0)
(0.0198846 -5.31642e-05 0)
(0.0182627 -6.76384e-06 0)
(0.0198584 -2.11615e-05 0)
(0.0198956 -3.53963e-05 0)
(0.0198991 -4.95737e-05 0)
(0.0182762 -6.30037e-06 0)
(0.0198723 -1.97275e-05 0)
(0.0199093 -3.2994e-05 0)
(0.0199127 -4.62059e-05 0)
(0.0182887 -5.8671e-06 0)
(0.0198852 -1.83832e-05 0)
(0.0199221 -3.07439e-05 0)
(0.0199253 -4.3052e-05 0)
(0.0183004 -5.46209e-06 0)
(0.0198972 -1.71252e-05 0)
(0.019934 -2.86395e-05 0)
(0.0199371 -4.01021e-05 0)
(0.0183113 -5.0842e-06 0)
(0.0199084 -1.59501e-05 0)
(0.0199451 -2.6674e-05 0)
(0.019948 -3.7347e-05 0)
(0.0183214 -4.73121e-06 0)
(0.0199188 -1.4853e-05 0)
(0.0199555 -2.48396e-05 0)
(0.0199582 -3.4777e-05 0)
(0.0183308 -4.40188e-06 0)
(0.0199286 -1.38303e-05 0)
(0.0199651 -2.31293e-05 0)
(0.0199677 -3.23823e-05 0)
(0.0183396 -4.09471e-06 0)
(0.0199376 -1.28781e-05 0)
(0.0199741 -2.15372e-05 0)
(0.0199765 -3.0153e-05 0)
(0.0183478 -3.80885e-06 0)
(0.0199461 -1.1993e-05 0)
(0.0199825 -2.00567e-05 0)
(0.0199848 -2.80797e-05 0)
(0.0183554 -3.54376e-06 0)
(0.0199539 -1.11712e-05 0)
(0.0199902 -1.86811e-05 0)
(0.0199924 -2.61542e-05 0)
(0.0183625 -3.29814e-06 0)
(0.0199612 -1.04081e-05 0)
(0.0199975 -1.74041e-05 0)
(0.0199995 -2.43679e-05 0)
(0.0183691 -3.07082e-06 0)
(0.019968 -9.70067e-06 0)
(0.0200042 -1.62209e-05 0)
(0.0200062 -2.27131e-05 0)
(0.0183752 -2.86012e-06 0)
(0.0199744 -9.04541e-06 0)
(0.0200105 -1.51258e-05 0)
(0.0200124 -2.11815e-05 0)
(0.0183809 -2.66543e-06 0)
(0.0199803 -8.43994e-06 0)
(0.0200164 -1.41143e-05 0)
(0.0200181 -1.9766e-05 0)
(0.0183863 -2.48605e-06 0)
(0.0199859 -7.88134e-06 0)
(0.0200219 -1.31809e-05 0)
(0.0200235 -1.84598e-05 0)
(0.0183913 -2.3206e-06 0)
(0.0199911 -7.3664e-06 0)
(0.020027 -1.23205e-05 0)
(0.0200286 -1.72565e-05 0)
(0.018396 -2.16807e-06 0)
(0.0199959 -6.89256e-06 0)
(0.0200318 -1.15296e-05 0)
(0.0200333 -1.61501e-05 0)
(0.0184003 -2.02777e-06 0)
(0.0200005 -6.45761e-06 0)
(0.0200363 -1.08043e-05 0)
(0.0200377 -1.5135e-05 0)
(0.0184044 -1.89947e-06 0)
(0.0200047 -6.05982e-06 0)
(0.0200405 -1.01405e-05 0)
(0.0200418 -1.42055e-05 0)
(0.0184083 -1.78265e-06 0)
(0.0200087 -5.6969e-06 0)
(0.0200445 -9.53451e-06 0)
(0.0200457 -1.33573e-05 0)
(0.0184119 -1.67685e-06 0)
(0.0200125 -5.36661e-06 0)
(0.0200482 -8.98271e-06 0)
(0.0200494 -1.25859e-05 0)
(0.0184153 -1.58071e-06 0)
(0.020016 -5.06685e-06 0)
(0.0200517 -8.48293e-06 0)
(0.0200528 -1.18877e-05 0)
(0.0184185 -1.49392e-06 0)
(0.0200194 -4.79666e-06 0)
(0.0200551 -8.0326e-06 0)
(0.0200561 -1.12585e-05 0)
(0.0184216 -1.41593e-06 0)
(0.0200226 -4.55469e-06 0)
(0.0200582 -7.62955e-06 0)
(0.0200592 -1.06947e-05 0)
(0.0184245 -1.34693e-06 0)
(0.0200256 -4.33942e-06 0)
(0.0200612 -7.27052e-06 0)
(0.0200622 -1.01935e-05 0)
(0.0184273 -1.28549e-06 0)
(0.0200285 -4.14934e-06 0)
(0.0200641 -6.95454e-06 0)
(0.020065 -9.75217e-06 0)
(0.0184299 -1.23183e-06 0)
(0.0200313 -3.98374e-06 0)
(0.0200668 -6.67959e-06 0)
(0.0200677 -9.36861e-06 0)
(0.0184325 -1.18502e-06 0)
(0.020034 -3.84189e-06 0)
(0.0200695 -6.44493e-06 0)
(0.0200703 -9.04031e-06 0)
(0.0184349 -1.14624e-06 0)
(0.0200366 -3.72384e-06 0)
(0.0200721 -6.24843e-06 0)
(0.0200728 -8.76507e-06 0)
(0.0184373 -1.11511e-06 0)
(0.0200391 -3.62802e-06 0)
(0.0200745 -6.08887e-06 0)
(0.0200752 -8.54213e-06 0)
(0.0184397 -1.09101e-06 0)
(0.0200416 -3.55359e-06 0)
(0.020077 -5.96507e-06 0)
(0.0200776 -8.37045e-06 0)
(0.018442 -1.07309e-06 0)
(0.020044 -3.49988e-06 0)
(0.0200794 -5.87715e-06 0)
(0.02008 -8.24962e-06 0)
(0.0184442 -1.06124e-06 0)
(0.0200464 -3.46727e-06 0)
(0.0200818 -5.8254e-06 0)
(0.0200823 -8.17871e-06 0)
(0.0184465 -1.05599e-06 0)
(0.0200488 -3.45646e-06 0)
(0.0200841 -5.81004e-06 0)
(0.0200846 -8.15697e-06 0)
(0.0184487 -1.05814e-06 0)
(0.0200511 -3.46728e-06 0)
(0.0200865 -5.8293e-06 0)
(0.0200869 -8.18426e-06 0)
(0.018451 -1.06729e-06 0)
(0.0200535 -3.49908e-06 0)
(0.0200888 -5.8832e-06 0)
(0.0200893 -8.26102e-06 0)
(0.0184533 -1.08256e-06 0)
(0.020056 -3.55112e-06 0)
(0.0200912 -5.97301e-06 0)
(0.0200916 -8.38886e-06 0)
(0.0184556 -1.10411e-06 0)
(0.0200585 -3.62495e-06 0)
(0.0200937 -6.09995e-06 0)
(0.020094 -8.56825e-06 0)
(0.018458 -1.13185e-06 0)
(0.020061 -3.72159e-06 0)
(0.0200962 -6.26558e-06 0)
(0.0200965 -8.79987e-06 0)
(0.0184604 -1.16722e-06 0)
(0.0200636 -3.84186e-06 0)
(0.0200988 -6.46975e-06 0)
(0.020099 -9.08491e-06 0)
(0.018463 -1.21109e-06 0)
(0.0200663 -3.98634e-06 0)
(0.0201014 -6.71285e-06 0)
(0.0201016 -9.42521e-06 0)
(0.0184656 -1.26247e-06 0)
(0.0200691 -4.1549e-06 0)
(0.0201042 -6.99667e-06 0)
(0.0201044 -9.82345e-06 0)
(0.0184684 -1.32168e-06 0)
(0.0200721 -4.34845e-06 0)
(0.0201071 -7.32317e-06 0)
(0.0201072 -1.02827e-05 0)
(0.0184713 -1.3881e-06 0)
(0.0200751 -4.56871e-06 0)
(0.0201102 -7.6959e-06 0)
(0.0201102 -1.0806e-05 0)
(0.0184743 -1.46305e-06 0)
(0.0200784 -4.81779e-06 0)
(0.0201134 -8.11719e-06 0)
(0.0201133 -1.13963e-05 0)
(0.0184775 -1.54792e-06 0)
(0.0200818 -5.0977e-06 0)
(0.0201168 -8.58927e-06 0)
(0.0201167 -1.20569e-05 0)
(0.0184809 -1.64386e-06 0)
(0.0200854 -5.40996e-06 0)
(0.0201204 -9.11371e-06 0)
(0.0201202 -1.27919e-05 0)
(0.0184845 -1.7506e-06 0)
(0.0200893 -5.75553e-06 0)
(0.0201242 -9.69414e-06 0)
(0.0201239 -1.36059e-05 0)
(0.0184884 -1.86819e-06 0)
(0.0200934 -6.13625e-06 0)
(0.0201282 -1.03343e-05 0)
(0.0201279 -1.45055e-05 0)
(0.0184925 -1.9961e-06 0)
(0.0200978 -6.55416e-06 0)
(0.0201326 -1.10395e-05 0)
(0.0201321 -1.54956e-05 0)
(0.0184969 -2.1359e-06 0)
(0.0201025 -7.01353e-06 0)
(0.0201372 -1.18149e-05 0)
(0.0201367 -1.65828e-05 0)
(0.0185016 -2.28942e-06 0)
(0.0201075 -7.51808e-06 0)
(0.0201421 -1.26652e-05 0)
(0.0201416 -1.77728e-05 0)
(0.0185067 -2.45855e-06 0)
(0.0201129 -8.07074e-06 0)
(0.0201475 -1.35945e-05 0)
(0.0201468 -1.9074e-05 0)
(0.0185121 -2.64403e-06 0)
(0.0201187 -8.67392e-06 0)
(0.0201532 -1.46081e-05 0)
(0.0201524 -2.04938e-05 0)
(0.018518 -2.84662e-06 0)
(0.0201249 -9.33112e-06 0)
(0.0201593 -1.57118e-05 0)
(0.0201584 -2.20415e-05 0)
(0.0185243 -3.06657e-06 0)
(0.0201316 -1.00455e-05 0)
(0.0201659 -1.6914e-05 0)
(0.0201649 -2.3728e-05 0)
(0.018531 -3.30559e-06 0)
(0.0201388 -1.08235e-05 0)
(0.020173 -1.82236e-05 0)
(0.0201718 -2.55644e-05 0)
(0.0185383 -3.56553e-06 0)
(0.0201465 -1.16703e-05 0)
(0.0201807 -1.96485e-05 0)
(0.0201794 -2.75613e-05 0)
(0.0185462 -3.84837e-06 0)
(0.0201549 -1.25913e-05 0)
(0.0201889 -2.11974e-05 0)
(0.0201875 -2.97317e-05 0)
(0.0185547 -4.15655e-06 0)
(0.0201639 -1.35922e-05 0)
(0.0201978 -2.28799e-05 0)
(0.0201962 -3.20894e-05 0)
(0.0185639 -4.49156e-06 0)
(0.0201737 -1.46785e-05 0)
(0.0202075 -2.47061e-05 0)
(0.0202057 -3.46497e-05 0)
(0.0185738 -4.85483e-06 0)
(0.0201842 -1.58577e-05 0)
(0.0202179 -2.66891e-05 0)
(0.0202158 -3.74294e-05 0)
(0.0185845 -5.24833e-06 0)
(0.0201956 -1.71367e-05 0)
(0.0202291 -2.88416e-05 0)
(0.0202269 -4.04469e-05 0)
(0.0185961 -5.67452e-06 0)
(0.0202079 -1.85254e-05 0)
(0.0202412 -3.11788e-05 0)
(0.0202388 -4.3721e-05 0)
(0.0186087 -6.13744e-06 0)
(0.0202212 -2.00329e-05 0)
(0.0202543 -3.37149e-05 0)
(0.0202516 -4.72733e-05 0)
(0.0186222 -6.6404e-06 0)
(0.0202355 -2.16691e-05 0)
(0.0202685 -3.64663e-05 0)
(0.0202655 -5.11263e-05 0)
(0.0186369 -7.18728e-06 0)
(0.0202511 -2.34444e-05 0)
(0.0202838 -3.94501e-05 0)
(0.0202806 -5.53057e-05 0)
(0.0186527 -7.7815e-06 0)
(0.0202679 -2.53698e-05 0)
(0.0203004 -4.26857e-05 0)
(0.0202968 -5.98394e-05 0)
(0.0186699 -8.42543e-06 0)
(0.0202861 -2.74575e-05 0)
(0.0203184 -4.61956e-05 0)
(0.0203145 -6.4758e-05 0)
(0.0186885 -9.12364e-06 0)
(0.0203058 -2.97223e-05 0)
(0.0203378 -5.00042e-05 0)
(0.0203335 -7.00944e-05 0)
(0.0187086 -9.88057e-06 0)
(0.0203271 -3.21799e-05 0)
(0.0203588 -5.41373e-05 0)
(0.0203541 -7.58841e-05 0)
(0.0187304 -1.07021e-05 0)
(0.0203501 -3.48474e-05 0)
(0.0203816 -5.86226e-05 0)
(0.0203764 -8.21658e-05 0)
(0.018754 -1.15947e-05 0)
(0.0203751 -3.77429e-05 0)
(0.0204062 -6.349e-05 0)
(0.0204006 -8.89815e-05 0)
(0.0187796 -1.25638e-05 0)
(0.0204022 -4.08852e-05 0)
(0.0204329 -6.87721e-05 0)
(0.0204268 -9.63782e-05 0)
(0.0188073 -1.36158e-05 0)
(0.0204315 -4.42959e-05 0)
(0.0204618 -7.45062e-05 0)
(0.0204551 -0.000104407 0)
(0.0188373 -1.47584e-05 0)
(0.0204632 -4.79998e-05 0)
(0.0204931 -8.07326e-05 0)
(0.0204858 -0.000113125 0)
(0.0188699 -1.59996e-05 0)
(0.0204976 -5.20228e-05 0)
(0.0205271 -8.74953e-05 0)
(0.0205191 -0.000122592 0)
(0.0189051 -1.73487e-05 0)
(0.0205349 -5.63937e-05 0)
(0.0205638 -9.48414e-05 0)
(0.0205551 -0.000132874 0)
(0.0189434 -1.88154e-05 0)
(0.0205754 -6.11436e-05 0)
(0.0206037 -0.000102824 0)
(0.0205942 -0.000144045 0)
(0.0189849 -2.04102e-05 0)
(0.0206192 -6.63069e-05 0)
(0.0206469 -0.0001115 0)
(0.0206365 -0.000156187 0)
(0.0190298 -2.21455e-05 0)
(0.0206667 -7.19222e-05 0)
(0.0206937 -0.000120933 0)
(0.0206824 -0.000169387 0)
(0.0190786 -2.40344e-05 0)
(0.0207182 -7.80311e-05 0)
(0.0207445 -0.000131195 0)
(0.0207322 -0.000183744 0)
(0.0191316 -2.6091e-05 0)
(0.0207741 -8.46794e-05 0)
(0.0207997 -0.000142362 0)
(0.0207861 -0.000199365 0)
(0.0191891 -2.83309e-05 0)
(0.0208348 -9.19179e-05 0)
(0.0208594 -0.000154518 0)
(0.0208447 -0.000216368 0)
(0.0192515 -3.0771e-05 0)
(0.0209007 -9.98032e-05 0)
(0.0209243 -0.00016776 0)
(0.0209082 -0.000234885 0)
(0.0193193 -3.34307e-05 0)
(0.0209722 -0.000108398 0)
(0.0209948 -0.000182191 0)
(0.0209771 -0.000255062 0)
(0.0193929 -3.63325e-05 0)
(0.0210499 -0.000117773 0)
(0.0210713 -0.00019793 0)
(0.021052 -0.000277059 0)
(0.019473 -3.95016e-05 0)
(0.0211342 -0.000128006 0)
(0.0211543 -0.000215103 0)
(0.0211333 -0.000301055 0)
(0.01956 -4.29659e-05 0)
(0.0212259 -0.000139183 0)
(0.0212446 -0.000233852 0)
(0.0212216 -0.000327248 0)
(0.0196546 -4.67545e-05 0)
(0.0213256 -0.000151398 0)
(0.0213427 -0.000254338 0)
(0.0213175 -0.00035586 0)
(0.0197576 -5.09017e-05 0)
(0.021434 -0.000164759 0)
(0.0214494 -0.000276739 0)
(0.0214218 -0.000387139 0)
(0.0198697 -5.54444e-05 0)
(0.021552 -0.000179386 0)
(0.0215655 -0.000301256 0)
(0.0215352 -0.000421364 0)
(0.0199919 -6.04253e-05 0)
(0.0216805 -0.000195415 0)
(0.0216918 -0.000328116 0)
(0.0216585 -0.000458846 0)
(0.020125 -6.58929e-05 0)
(0.0218204 -0.000213001 0)
(0.0218294 -0.000357573 0)
(0.0217928 -0.000499935 0)
(0.0202701 -7.1903e-05 0)
(0.0219729 -0.000232316 0)
(0.0219793 -0.000389913 0)
(0.0219391 -0.000545027 0)
(0.0204285 -7.85182e-05 0)
(0.0221393 -0.000253556 0)
(0.0221427 -0.000425462 0)
(0.0220984 -0.000594569 0)
(0.0206015 -8.58089e-05 0)
(0.0223208 -0.000276944 0)
(0.0223209 -0.000464587 0)
(0.0222721 -0.000649067 0)
(0.0207905 -9.38559e-05 0)
(0.022519 -0.000302735 0)
(0.0225154 -0.000507708 0)
(0.0224616 -0.000709098 0)
(0.0209973 -0.000102753 0)
(0.0227357 -0.000331219 0)
(0.022728 -0.000555306 0)
(0.0226684 -0.000775322 0)
(0.0212237 -0.000112608 0)
(0.0229727 -0.000362732 0)
(0.0229603 -0.000607932 0)
(0.0228944 -0.000848492 0)
(0.0214718 -0.000123545 0)
(0.0232322 -0.00039766 0)
(0.0232146 -0.00066622 0)
(0.0231414 -0.000929479 0)
(0.021744 -0.000135709 0)
(0.0235166 -0.00043645 0)
(0.0234931 -0.000730907 0)
(0.0234118 -0.00101928 0)
(0.0220431 -0.000149268 0)
(0.0238288 -0.000479624 0)
(0.0237984 -0.000802846 0)
(0.0237079 -0.00111907 0)
(0.0223721 -0.00016442 0)
(0.0241717 -0.000527792 0)
(0.0241337 -0.000883034 0)
(0.0240326 -0.00123019 0)
(0.0227346 -0.0001814 0)
(0.024549 -0.000581669 0)
(0.0245021 -0.000972635 0)
(0.024389 -0.00135422 0)
(0.0231345 -0.000200484 0)
(0.0249647 -0.000642097 0)
(0.0249076 -0.00107303 0)
(0.0247807 -0.00149302 0)
(0.0235766 -0.000222001 0)
(0.0254235 -0.000710081 0)
(0.0253546 -0.00118584 0)
(0.0252117 -0.0016488 0)
(0.0240663 -0.000246347 0)
(0.0259306 -0.00078682 0)
(0.025848 -0.00131301 0)
(0.0256868 -0.00182414 0)
(0.0246097 -0.000274001 0)
(0.0264924 -0.000873754 0)
(0.0263938 -0.00145687 0)
(0.0262111 -0.00202218 0)
(0.0252142 -0.000305542 0)
(0.0271159 -0.000972624 0)
(0.0269986 -0.00162022 0)
(0.0267908 -0.00224664 0)
(0.0258885 -0.000341683 0)
(0.0278097 -0.00108555 0)
(0.0276703 -0.00180647 0)
(0.0274329 -0.00250205 0)
(0.0266426 -0.000383299 0)
(0.0285836 -0.00121516 0)
(0.0284179 -0.00201978 0)
(0.0281456 -0.00279393 0)
(0.0274889 -0.000431484 0)
(0.0294494 -0.00136468 0)
(0.0292523 -0.00226529 0)
(0.0289382 -0.00312903 0)
(0.0284419 -0.00048761 0)
(0.0304209 -0.00153813 0)
(0.0301861 -0.0025494 0)
(0.0298218 -0.00351571 0)
(0.0295191 -0.000553419 0)
(0.0315151 -0.00174059 0)
(0.0312344 -0.00288012 0)
(0.0308094 -0.00396439 0)
(0.0307421 -0.000631142 0)
(0.0327522 -0.00197854 0)
(0.0324154 -0.0032676 0)
(0.0319162 -0.00448816 0)
(0.0321375 -0.000723665 0)
(0.034157 -0.00226031 0)
(0.0337507 -0.00372485 0)
(0.0331601 -0.00510365 0)
(0.0337382 -0.000834777 0)
(0.0357599 -0.00259674 0)
(0.0352669 -0.00426867 0)
(0.0345625 -0.00583219 0)
(0.0355857 -0.000969508 0)
(0.037599 -0.00300214 0)
(0.0369965 -0.0049211 0)
(0.0361488 -0.00670142 0)
(0.0377327 -0.00113462 0)
(0.039722 -0.00349562 0)
(0.0389795 -0.00571137 0)
(0.0379493 -0.0077476 0)
(0.0402475 -0.0013394 0)
(0.0421899 -0.00410321 0)
(0.0412658 -0.00667884 0)
(0.0400003 -0.00901884 0)
(0.0432186 -0.00159659 0)
(0.0450813 -0.00486063 0)
(0.0439182 -0.00787725 0)
(0.0423448 -0.0105799 0)
(0.0467666 -0.00192456 0)
(0.0484993 -0.0058184 0)
(0.0470163 -0.00938132 0)
(0.0450339 -0.0125189 0)
(0.0510453 -0.0023494 0)
(0.0525813 -0.00704845 0)
(0.0506632 -0.0112965 0)
(0.0481278 -0.014958 0)
(0.0562971 -0.00290796 0)
(0.0575137 -0.00865394 0)
(0.0549879 -0.0137749 0)
(0.0516943 -0.0180694 0)
(0.0627577 -0.0036641 0)
(0.0635518 -0.0108008 0)
(0.0601757 -0.0170395 0)
(0.0558118 -0.0220962 0)
(0.0711174 -0.00468351 0)
(0.071071 -0.0136871 0)
(0.0664188 -0.0214237 0)
(0.0605438 -0.0274047 0)
(0.0811506 -0.00613377 0)
(0.0805246 -0.0177777 0)
(0.0741832 -0.027441 0)
(0.0660099 -0.0344972 0)
(0.0964912 -0.00822644 0)
(0.092995 -0.0233702 0)
(0.0834594 -0.0358697 0)
(0.0720067 -0.0443025 0)
(0.110232 -0.0106896 0)
(0.108032 -0.031324 0)
(0.0965031 -0.0479437 0)
(0.0795403 -0.0577872 0)
(0.145908 -0.016288 0)
(0.133671 -0.0444547 0)
(0.11077 -0.0659616 0)
(0.0845264 -0.0783449 0)
(0.157154 -0.0171762 0)
(0.150979 -0.052727 0)
(0.134516 -0.0878147 0)
(0.104092 -0.106079 0)
(0.245429 -0.0338978 0)
(0.224601 -0.0979792 0)
(0.175785 -0.148141 0)
(0.101306 -0.167841 0)
(0.00533872 -0.0177736 0)
(0.0274577 -0.0130557 0)
(0.0562897 0.00667795 0)
(0.0681592 0.0246969 0)
(0.0678329 0.0363387 0)
(0.0624486 0.0410957 0)
(0.0544873 0.0403095 0)
(0.0462431 0.0363594 0)
(0.0395513 0.0317042 0)
(0.0349278 0.0266335 0)
(0.0318915 0.0214434 0)
(0.0296425 0.0169456 0)
(0.0277501 0.013434 0)
(0.0261386 0.0107504 0)
(0.0247756 0.0086734 0)
(0.0236238 0.00704104 0)
(0.0226526 0.00574165 0)
(0.0218367 0.00469544 0)
(0.0211542 0.00384456 0)
(0.0205865 0.00314654 0)
(0.0201173 0.0025698 0)
(0.0197328 0.00209044 0)
(0.019421 0.00169015 0)
(0.0191716 0.00135475 0)
(0.0189754 0.00107305 0)
(0.0188247 0.000836245 0)
(0.0187128 0.000637129 0)
(0.0186335 0.000469916 0)
(0.018582 0.000329783 0)
(0.0185535 0.000212774 0)
(0.0185443 0.000115539 0)
(0.018551 3.52631e-05 0)
(0.0185707 -3.05039e-05 0)
(0.0186008 -8.38957e-05 0)
(0.0186392 -0.000126797 0)
(0.0186841 -0.000160664 0)
(0.0187337 -0.000186793 0)
(0.0187869 -0.00020634 0)
(0.0188423 -0.000220311 0)
(0.0188991 -0.000229598 0)
(0.0189565 -0.000234993 0)
(0.0190138 -0.000237162 0)
(0.0190704 -0.000236661 0)
(0.0191261 -0.000233986 0)
(0.0191803 -0.000229573 0)
(0.0192329 -0.000223792 0)
(0.0192836 -0.000216956 0)
(0.0193324 -0.000209326 0)
(0.019379 -0.000201126 0)
(0.0194236 -0.000192544 0)
(0.0194659 -0.000183735 0)
(0.0195061 -0.00017483 0)
(0.0195442 -0.000165933 0)
(0.0195802 -0.000157133 0)
(0.0196141 -0.000148496 0)
(0.0196461 -0.000140079 0)
(0.0196761 -0.00013192 0)
(0.0197043 -0.000124054 0)
(0.0197307 -0.000116502 0)
(0.0197555 -0.000109279 0)
(0.0197787 -0.000102391 0)
(0.0198004 -9.58413e-05 0)
(0.0198206 -8.96319e-05 0)
(0.0198395 -8.3759e-05 0)
(0.0198572 -7.82165e-05 0)
(0.0198736 -7.29962e-05 0)
(0.0198889 -6.80884e-05 0)
(0.0199032 -6.34813e-05 0)
(0.0199165 -5.91615e-05 0)
(0.0199289 -5.51161e-05 0)
(0.0199404 -5.1333e-05 0)
(0.0199512 -4.78e-05 0)
(0.0199611 -4.45045e-05 0)
(0.0199704 -4.1434e-05 0)
(0.0199791 -3.85762e-05 0)
(0.0199871 -3.59203e-05 0)
(0.0199946 -3.34549e-05 0)
(0.0200016 -3.1168e-05 0)
(0.020008 -2.90492e-05 0)
(0.0200141 -2.70882e-05 0)
(0.0200197 -2.52765e-05 0)
(0.020025 -2.36049e-05 0)
(0.0200299 -2.20652e-05 0)
(0.0200345 -2.06496e-05 0)
(0.0200388 -1.93506e-05 0)
(0.0200429 -1.81622e-05 0)
(0.0200467 -1.7078e-05 0)
(0.0200502 -1.60922e-05 0)
(0.0200536 -1.51994e-05 0)
(0.0200568 -1.43945e-05 0)
(0.0200598 -1.36736e-05 0)
(0.0200627 -1.30335e-05 0)
(0.0200654 -1.24697e-05 0)
(0.0200681 -1.19793e-05 0)
(0.0200706 -1.15597e-05 0)
(0.0200731 -1.12086e-05 0)
(0.0200754 -1.09245e-05 0)
(0.0200778 -1.07061e-05 0)
(0.0200801 -1.05524e-05 0)
(0.0200823 -1.04619e-05 0)
(0.0200846 -1.04339e-05 0)
(0.0200868 -1.04698e-05 0)
(0.0200891 -1.05695e-05 0)
(0.0200914 -1.07336e-05 0)
(0.0200937 -1.09634e-05 0)
(0.0200961 -1.12596e-05 0)
(0.0200986 -1.16246e-05 0)
(0.0201012 -1.20608e-05 0)
(0.0201038 -1.25717e-05 0)
(0.0201066 -1.31605e-05 0)
(0.0201095 -1.38305e-05 0)
(0.0201126 -1.45862e-05 0)
(0.0201158 -1.5432e-05 0)
(0.0201193 -1.6373e-05 0)
(0.0201229 -1.74156e-05 0)
(0.0201268 -1.85671e-05 0)
(0.0201309 -1.98344e-05 0)
(0.0201354 -2.12251e-05 0)
(0.0201401 -2.27482e-05 0)
(0.0201452 -2.44134e-05 0)
(0.0201506 -2.62307e-05 0)
(0.0201565 -2.82122e-05 0)
(0.0201628 -3.03703e-05 0)
(0.0201696 -3.27199e-05 0)
(0.0201769 -3.52753e-05 0)
(0.0201848 -3.80526e-05 0)
(0.0201934 -4.10692e-05 0)
(0.0202026 -4.43453e-05 0)
(0.0202125 -4.79014e-05 0)
(0.0202232 -5.17614e-05 0)
(0.0202348 -5.59501e-05 0)
(0.0202474 -6.04942e-05 0)
(0.0202609 -6.54235e-05 0)
(0.0202756 -7.077e-05 0)
(0.0202914 -7.65694e-05 0)
(0.0203086 -8.28605e-05 0)
(0.0203271 -8.9685e-05 0)
(0.0203472 -9.70892e-05 0)
(0.020369 -0.000105121 0)
(0.0203925 -0.000113836 0)
(0.020418 -0.000123294 0)
(0.0204456 -0.000133559 0)
(0.0204754 -0.000144702 0)
(0.0205078 -0.000156802 0)
(0.0205429 -0.000169944 0)
(0.0205809 -0.000184219 0)
(0.0206221 -0.000199733 0)
(0.0206667 -0.000216598 0)
(0.0207151 -0.000234936 0)
(0.0207676 -0.000254886 0)
(0.0208245 -0.000276597 0)
(0.0208862 -0.000300236 0)
(0.0209531 -0.000325988 0)
(0.0210258 -0.000354057 0)
(0.0211047 -0.000384669 0)
(0.0211904 -0.000418074 0)
(0.0212834 -0.000454554 0)
(0.0213845 -0.000494421 0)
(0.0214944 -0.000538027 0)
(0.0216139 -0.000585763 0)
(0.0217439 -0.000638072 0)
(0.0218853 -0.000695448 0)
(0.0220393 -0.000758453 0)
(0.0222071 -0.000827723 0)
(0.0223899 -0.00090398 0)
(0.0225893 -0.000988046 0)
(0.022807 -0.00108086 0)
(0.0230446 -0.00118351 0)
(0.0233044 -0.00129723 0)
(0.0235885 -0.00142347 0)
(0.0238995 -0.00156389 0)
(0.0242403 -0.00172043 0)
(0.0246141 -0.00189539 0)
(0.0250246 -0.00209145 0)
(0.0254759 -0.00231177 0)
(0.0259726 -0.00256015 0)
(0.0265202 -0.00284108 0)
(0.0271246 -0.00316002 0)
(0.0277927 -0.00352353 0)
(0.0285325 -0.00393964 0)
(0.0293529 -0.00441819 0)
(0.0302644 -0.00497135 0)
(0.0312788 -0.00561427 0)
(0.0324097 -0.00636602 0)
(0.0336726 -0.00725072 0)
(0.0350851 -0.00829923 0)
(0.0366667 -0.00955137 0)
(0.038439 -0.011059 0)
(0.0404246 -0.0128905 0)
(0.0426458 -0.0151366 0)
(0.0451214 -0.0179192 0)
(0.0478605 -0.0214039 0)
(0.050851 -0.0258169 0)
(0.0540391 -0.0314745 0)
(0.0572821 -0.0388067 0)
(0.0602934 -0.0484724 0)
(0.062417 -0.0612334 0)
(0.0620544 -0.0790507 0)
(0.0595483 -0.10272 0)
(0.0176101 -0.143784 0)
(-0.00230844 -0.036332 0)
(0.00350105 -0.0244459 0)
(0.015656 -0.00499513 0)
(0.0270245 0.018888 0)
(0.0325021 0.0366017 0)
(0.0336197 0.0448828 0)
(0.032252 0.0456495 0)
(0.0294492 0.0421286 0)
(0.0274533 0.0359489 0)
(0.026594 0.0291459 0)
(0.0260435 0.0231847 0)
(0.0253265 0.0184263 0)
(0.0244853 0.0147601 0)
(0.0236281 0.0119251 0)
(0.0228124 0.00970035 0)
(0.022066 0.00793 0)
(0.0214012 0.00650411 0)
(0.0208205 0.00534363 0)
(0.0203216 0.00439076 0)
(0.0198991 0.00360254 0)
(0.0195462 0.00294651 0)
(0.0192561 0.0023979 0)
(0.0190216 0.00193739 0)
(0.018836 0.0015499 0)
(0.0186931 0.00122335 0)
(0.0185871 0.000948094 0)
(0.0185129 0.000716212 0)
(0.0184658 0.000521247 0)
(0.0184416 0.000357771 0)
(0.0184366 0.000221281 0)
(0.0184474 0.000107943 0)
(0.0184713 1.44724e-05 0)
(0.0185058 -6.19671e-05 0)
(0.0185486 -0.000123813 0)
(0.0185978 -0.000173237 0)
(0.0186519 -0.000212004 0)
(0.0187094 -0.000241641 0)
(0.0187691 -0.000263536 0)
(0.0188301 -0.000278893 0)
(0.0188916 -0.000288755 0)
(0.0189529 -0.00029404 0)
(0.0190134 -0.000295537 0)
(0.0190727 -0.000293931 0)
(0.0191304 -0.000289816 0)
(0.0191864 -0.0002837 0)
(0.0192403 -0.00027601 0)
(0.019292 -0.000267115 0)
(0.0193415 -0.000257331 0)
(0.0193886 -0.000246921 0)
(0.0194335 -0.000236105 0)
(0.019476 -0.000225066 0)
(0.0195163 -0.000213955 0)
(0.0195543 -0.000202896 0)
(0.0195901 -0.00019199 0)
(0.0196238 -0.000181313 0)
(0.0196554 -0.000170926 0)
(0.0196852 -0.000160879 0)
(0.019713 -0.000151205 0)
(0.0197391 -0.000141931 0)
(0.0197635 -0.000133071 0)
(0.0197863 -0.000124634 0)
(0.0198076 -0.000116623 0)
(0.0198274 -0.000109034 0)
(0.019846 -0.000101859 0)
(0.0198633 -9.50908e-05 0)
(0.0198793 -8.87182e-05 0)
(0.0198943 -8.27296e-05 0)
(0.0199083 -7.71102e-05 0)
(0.0199212 -7.18449e-05 0)
(0.0199333 -6.69193e-05 0)
(0.0199446 -6.23171e-05 0)
(0.019955 -5.80215e-05 0)
(0.0199647 -5.40154e-05 0)
(0.0199738 -5.02831e-05 0)
(0.0199822 -4.68108e-05 0)
(0.01999 -4.35844e-05 0)
(0.0199973 -4.05887e-05 0)
(0.020004 -3.78101e-05 0)
(0.0200104 -3.52362e-05 0)
(0.0200162 -3.28554e-05 0)
(0.0200217 -3.06564e-05 0)
(0.0200268 -2.86278e-05 0)
(0.0200316 -2.67591e-05 0)
(0.0200361 -2.50411e-05 0)
(0.0200402 -2.34654e-05 0)
(0.0200442 -2.20244e-05 0)
(0.0200478 -2.07093e-05 0)
(0.0200513 -1.95138e-05 0)
(0.0200546 -1.84309e-05 0)
(0.0200576 -1.74552e-05 0)
(0.0200606 -1.65816e-05 0)
(0.0200634 -1.58054e-05 0)
(0.020066 -1.51219e-05 0)
(0.0200686 -1.45275e-05 0)
(0.020071 -1.40186e-05 0)
(0.0200734 -1.35939e-05 0)
(0.0200757 -1.32505e-05 0)
(0.020078 -1.29864e-05 0)
(0.0200802 -1.28e-05 0)
(0.0200824 -1.26904e-05 0)
(0.0200846 -1.26569e-05 0)
(0.0200867 -1.27011e-05 0)
(0.0200889 -1.28225e-05 0)
(0.0200912 -1.3022e-05 0)
(0.0200934 -1.33004e-05 0)
(0.0200957 -1.36597e-05 0)
(0.0200981 -1.41024e-05 0)
(0.0201006 -1.46319e-05 0)
(0.0201032 -1.52521e-05 0)
(0.0201059 -1.59664e-05 0)
(0.0201087 -1.6779e-05 0)
(0.0201117 -1.76952e-05 0)
(0.0201148 -1.87204e-05 0)
(0.0201181 -1.98616e-05 0)
(0.0201216 -2.11264e-05 0)