/*--------------------------------*- C++ -*----------------------------------*\
  =========                 |
  \\      /  F ield         | OpenFOAM: The Open Source CFD Toolbox
   \\    /   O peration     | Website:  https://openfoam.org
    \\  /    A nd           | Version:  dev
     \\/     M anipulation  |
\*---------------------------------------------------------------------------*/
FoamFile
{
    version     2.0;
    format      ascii;
    class       surfaceScalarField;
    location    "16";
    object      phi;
}
// * * * * * * * * * * * * * * * * * * * * * * * * * * * * * * * * * * * * * //

dimensions      [1 0 -1 0 0 0 0];

internalField   nonuniform List<scalar> 
15760
(
6.51075e-07
0.00115797
-6.11229e-06
0.00116538
-1.40102e-05
0.0011665
0.0011467
-2.11243e-06
-3.3817e-06
0.00116135
-1.50453e-05
0.00117704
-3.29337e-05
0.00118439
0.00114248
-2.87098e-05
-6.44181e-06
0.00116779
-2.22701e-05
0.00119287
-4.86945e-05
0.00121082
0.00114875
-5.49633e-05
-5.61892e-06
0.00117341
-2.20128e-05
0.00120926
-5.17174e-05
0.00124052
0.0011713
-7.42673e-05
1.12584e-06
0.00117229
-9.1737e-06
0.00121956
-3.38333e-05
0.00126518
0.00120906
-7.15995e-05
1.53839e-05
0.0011569
1.87242e-05
0.00121622
9.83204e-06
0.00127407
0.00125052
-3.16211e-05
3.6801e-05
0.0011201
6.15513e-05
0.00119147
7.9284e-05
0.00125634
0.0012744
5.54003e-05
6.26158e-05
0.00105748
0.000115363
0.00113872
0.000168728
0.00120298
0.00125161
0.000191518
8.75707e-05
0.000969914
0.000170136
0.00105616
0.000259553
0.00111356
0.00116914
0.000342024
0.000105286
0.000864628
0.000210103
0.000951342
0.000324871
0.000998792
0.00104632
0.000447685
0.0001124
0.000752228
0.00022549
0.000838252
0.000349098
0.000875184
0.000905209
0.000490214
0.000109856
0.000642372
0.000217863
0.000730245
0.000333303
0.000759745
0.000770763
0.00046775
0.000101028
0.000541344
0.000196204
0.000635068
0.000294155
0.000661794
0.000660764
0.000404154
8.8809e-05
0.000452536
0.000169307
0.00055457
0.000249266
0.000581835
0.000576699
0.000333331
7.35802e-05
0.000378955
0.000140987
0.000487164
0.000206896
0.000515926
0.000511025
0.000272569
5.51024e-05
0.000323853
0.000111523
0.000430744
0.000167516
0.000459934
0.00045649
0.000222051
3.70209e-05
0.000286832
8.34946e-05
0.00038427
0.000132109
0.000411319
0.00040868
0.00017992
2.41694e-05
0.000262662
6.17632e-05
0.000346677
0.000103864
0.000369218
0.000366374
0.00014617
1.76534e-05
0.000245009
4.82105e-05
0.000316119
8.40416e-05
0.000333387
0.000329854
0.000120562
1.52925e-05
0.000229716
4.06932e-05
0.000290719
7.07265e-05
0.000303354
0.000299157
0.000101423
1.44247e-05
0.000215291
3.60134e-05
0.00026913
6.11193e-05
0.000278248
0.00027363
8.66468e-05
1.36069e-05
0.000201684
3.22309e-05
0.000250506
5.3386e-05
0.000257093
0.000252333
7.4683e-05
1.25545e-05
0.00018913
2.87499e-05
0.000234311
4.67527e-05
0.00023909
0.000234426
6.46589e-05
1.13841e-05
0.000177746
2.55201e-05
0.000220175
4.09436e-05
0.000223667
0.000219263
5.61068e-05
1.02078e-05
0.000167538
2.25618e-05
0.000207821
3.58214e-05
0.000210407
0.00020635
4.87348e-05
9.07905e-06
0.000158459
1.98696e-05
0.00019703
3.12854e-05
0.000198991
0.000195306
4.23291e-05
8.02028e-06
0.000150439
1.74254e-05
0.000187625
2.72537e-05
0.000189163
0.000185838
3.67213e-05
7.03935e-06
0.000143399
1.52076e-05
0.000179457
2.36569e-05
0.000180714
0.000177719
3.17763e-05
6.13647e-06
0.000137263
1.31945e-05
0.000172399
2.04357e-05
0.000173472
0.00017077
2.7385e-05
5.30654e-06
0.000131956
1.13627e-05
0.000166342
1.75371e-05
0.000167298
0.000164849
2.34584e-05
4.5453e-06
0.000127411
9.69401e-06
0.000161194
1.49187e-05
0.000162073
0.000159841
1.99262e-05
3.83738e-06
0.000123574
8.16303e-06
0.000156868
1.25397e-05
0.000157697
0.000155651
1.67294e-05
3.18779e-06
0.000120386
6.76606e-06
0.00015329
1.03767e-05
0.000154086
0.000152203
1.38256e-05
2.59703e-06
0.000117789
5.49833e-06
0.000150389
8.41306e-06
0.000151171
0.000149434
1.1182e-05
2.05119e-06
0.000115738
4.33413e-06
0.000148106
6.61323e-06
0.000148892
0.00014729
8.75663e-06
1.53882e-06
0.000114199
3.25006e-06
0.000146394
4.94526e-06
0.000147197
0.000145721
6.51398e-06
1.0595e-06
0.000113139
2.2413e-06
0.000145213
3.39939e-06
0.000146039
0.000144681
4.43972e-06
6.16786e-07
0.000112522
1.31086e-06
0.000144518
1.97464e-06
0.000145375
0.000144128
2.52764e-06
2.11408e-07
0.000112311
4.55961e-07
0.000144274
6.6484e-07
0.000145166
0.000144024
7.68858e-07
-1.6372e-07
0.000112475
-3.32197e-07
0.000144442
-5.38557e-07
0.000145373
0.000144331
-8.45211e-07
-5.05224e-07
0.00011298
-1.0503e-06
0.000144987
-1.63626e-06
0.000145959
0.000145013
-2.31877e-06
-8.1471e-07
0.000113795
-1.70104e-06
0.000145874
-2.63129e-06
0.000146889
0.000146037
-3.65551e-06
-1.09547e-06
0.00011489
-2.28981e-06
0.000147068
-3.53053e-06
0.00014813
0.00014737
-4.86292e-06
-1.34813e-06
0.000116238
-2.81838e-06
0.000148538
-4.33707e-06
0.000149648
0.000148978
-5.94519e-06
-1.57327e-06
0.000117812
-3.28833e-06
0.000150253
-5.05342e-06
0.000151413
0.00015083
-6.9055e-06
-1.77149e-06
0.000119583
-3.70122e-06
0.000152183
-5.68192e-06
0.000153394
0.000152895
-7.74698e-06
-1.94349e-06
0.000121526
-4.05865e-06
0.000154298
-6.22517e-06
0.000155561
0.000155143
-8.47318e-06
-2.0901e-06
0.000123617
-4.36248e-06
0.000156571
-6.68619e-06
0.000157884
0.000157545
-9.08823e-06
-2.2123e-06
0.000125829
-4.61489e-06
0.000158973
-7.06845e-06
0.000160338
0.000160074
-9.59677e-06
-2.31114e-06
0.00012814
-4.81836e-06
0.000161481
-7.37568e-06
0.000162895
0.000162702
-1.00039e-05
-2.38781e-06
0.000130528
-4.97551e-06
0.000164068
-7.61197e-06
0.000165532
0.000165405
-1.03151e-05
-2.44362e-06
0.000132971
-5.08915e-06
0.000166714
-7.7817e-06
0.000168224
0.00016816
-1.05364e-05
-2.47997e-06
0.000135451
-5.16227e-06
0.000169396
-7.88949e-06
0.000170951
0.000170944
-1.06741e-05
-2.49837e-06
0.00013795
-5.19799e-06
0.000172096
-7.9402e-06
0.000173694
0.000173739
-1.07349e-05
-2.50031e-06
0.00014045
-5.19954e-06
0.000174795
-7.93881e-06
0.000176433
0.000176526
-1.07255e-05
-2.48733e-06
0.000142937
-5.17021e-06
0.000177478
-7.89044e-06
0.000179153
0.000179288
-1.06531e-05
-2.46103e-06
0.000145398
-5.11336e-06
0.00018013
-7.80025e-06
0.00018184
0.000182013
-1.05246e-05
-2.42296e-06
0.000147821
-5.03226e-06
0.000182739
-7.67326e-06
0.000184481
0.000184686
-1.03469e-05
-2.37467e-06
0.000150196
-4.93011e-06
0.000185295
-7.51438e-06
0.000187065
0.000187298
-1.01266e-05
-2.31763e-06
0.000152514
-4.80995e-06
0.000187787
-7.3283e-06
0.000189584
0.00018984
-9.87012e-06
-2.25325e-06
0.000154767
-4.67473e-06
0.000190209
-7.11952e-06
0.000192028
0.000192304
-9.58358e-06
-2.18284e-06
0.00015695
-4.52718e-06
0.000192553
-6.89223e-06
0.000194393
0.000194685
-9.27264e-06
-2.10765e-06
0.000159057
-4.36988e-06
0.000194815
-6.65036e-06
0.000196674
0.000196977
-8.94259e-06
-2.0288e-06
0.000161086
-4.20518e-06
0.000196992
-6.39748e-06
0.000198866
0.000199178
-8.59827e-06
-1.94734e-06
0.000163033
-4.03523e-06
0.00019908
-6.13689e-06
0.000200968
0.000201285
-8.24408e-06
-1.8642e-06
0.000164898
-3.86197e-06
0.000201077
-5.8715e-06
0.000202977
0.000203297
-7.88394e-06
-1.78022e-06
0.000166678
-3.6871e-06
0.000202984
-5.60393e-06
0.000204894
0.000205215
-7.52134e-06
-1.69614e-06
0.000168374
-3.51215e-06
0.0002048
-5.33646e-06
0.000206718
0.000207038
-7.15934e-06
-1.61259e-06
0.000169987
-3.33842e-06
0.000206526
-5.07109e-06
0.000208451
0.000208767
-6.80059e-06
-1.53012e-06
0.000171517
-3.16705e-06
0.000208163
-4.80952e-06
0.000210094
0.000210405
-6.44732e-06
-1.44919e-06
0.000172966
-2.99899e-06
0.000209713
-4.55316e-06
0.000211648
0.000211953
-6.10145e-06
-1.3702e-06
0.000174336
-2.83504e-06
0.000211178
-4.30321e-06
0.000213116
0.000213414
-5.76452e-06
-1.29346e-06
0.00017563
-2.67582e-06
0.00021256
-4.06063e-06
0.000214501
0.000214792
-5.43779e-06
-1.21922e-06
0.000176849
-2.52187e-06
0.000213863
-3.82617e-06
0.000215805
0.000216088
-5.12224e-06
-1.14767e-06
0.000177996
-2.37355e-06
0.000215088
-3.60043e-06
0.000217032
0.000217306
-4.81861e-06
-1.07896e-06
0.000179075
-2.23116e-06
0.000216241
-3.38379e-06
0.000218185
0.00021845
-4.52743e-06
-1.01318e-06
0.000180089
-2.09489e-06
0.000217322
-3.17654e-06
0.000219266
0.000219522
-4.24904e-06
-9.50381e-07
0.000181039
-1.96483e-06
0.000218337
-2.97884e-06
0.00022028
0.000220527
-3.98361e-06
-8.90594e-07
0.000181929
-1.84104e-06
0.000219287
-2.79072e-06
0.00022123
0.000221467
-3.73119e-06
-8.33803e-07
0.000182763
-1.72349e-06
0.000220177
-2.61217e-06
0.000222119
0.000222347
-3.49169e-06
-7.79984e-07
0.000183543
-1.61213e-06
0.000221009
-2.44304e-06
0.00022295
0.000223169
-3.26494e-06
-7.29089e-07
0.000184272
-1.50682e-06
0.000221787
-2.28316e-06
0.000223726
0.000223936
-3.05071e-06
-6.81044e-07
0.000184953
-1.40744e-06
0.000222513
-2.13232e-06
0.000224451
0.000224653
-2.84865e-06
-6.35776e-07
0.000185589
-1.31381e-06
0.000223191
-1.99025e-06
0.000225127
0.000225321
-2.65842e-06
-5.93185e-07
0.000186182
-1.22575e-06
0.000223824
-1.85666e-06
0.000225758
0.000225944
-2.47959e-06
-5.53184e-07
0.000186735
-1.14304e-06
0.000224414
-1.73123e-06
0.000226346
0.000226524
-2.31174e-06
-5.15671e-07
0.000187251
-1.06549e-06
0.000224963
-1.61363e-06
0.000226894
0.000227065
-2.15442e-06
-4.80532e-07
0.000187732
-9.92873e-07
0.000225476
-1.50352e-06
0.000227405
0.000227569
-2.00716e-06
-4.47666e-07
0.000188179
-9.24948e-07
0.000225953
-1.40056e-06
0.000227881
0.000228037
-1.86949e-06
-4.16961e-07
0.000188596
-8.61503e-07
0.000226398
-1.3044e-06
0.000228324
0.000228474
-1.74094e-06
-3.88313e-07
0.000188985
-8.02316e-07
0.000226812
-1.21471e-06
0.000228736
0.00022888
-1.62107e-06
-3.61612e-07
0.000189346
-7.47163e-07
0.000227197
-1.13115e-06
0.00022912
0.000229259
-1.50941e-06
-3.36762e-07
0.000189683
-6.95833e-07
0.000227556
-1.05339e-06
0.000229478
0.000229611
-1.40552e-06
-3.13655e-07
0.000189997
-6.48127e-07
0.000227891
-9.81112e-07
0.00022981
0.000229939
-1.30898e-06
-2.92205e-07
0.000190289
-6.03829e-07
0.000228202
-9.14019e-07
0.000230121
0.000230244
-1.21937e-06
-2.72309e-07
0.000190561
-5.62758e-07
0.000228493
-8.51818e-07
0.00023041
0.000230528
-1.13631e-06
-2.53885e-07
0.000190815
-5.24726e-07
0.000228764
-7.94227e-07
0.000230679
0.000230794
-1.05942e-06
-2.3685e-07
0.000191052
-4.89559e-07
0.000229016
-7.40981e-07
0.000230931
0.000231041
-9.88342e-07
-2.21124e-07
0.000191273
-4.57098e-07
0.000229252
-6.91832e-07
0.000231165
0.000231272
-9.22739e-07
-2.06629e-07
0.00019148
-4.27182e-07
0.000229473
-6.4655e-07
0.000231385
0.000231488
-8.62287e-07
-1.93291e-07
0.000191673
-3.99676e-07
0.000229679
-6.04904e-07
0.00023159
0.000231689
-8.06704e-07
-1.81048e-07
0.000191854
-3.7443e-07
0.000229873
-5.66686e-07
0.000231782
0.000231879
-7.5571e-07
-1.69844e-07
0.000192024
-3.51329e-07
0.000230054
-5.31711e-07
0.000231963
0.000232056
-7.0904e-07
-1.59619e-07
0.000192183
-3.30245e-07
0.000230225
-4.99795e-07
0.000232132
0.000232223
-6.66459e-07
-1.50318e-07
0.000192334
-3.11072e-07
0.000230385
-4.7078e-07
0.000232292
0.000232379
-6.27742e-07
-1.41891e-07
0.000192475
-2.93718e-07
0.000230537
-4.44505e-07
0.000232443
0.000232528
-5.92688e-07
-1.34297e-07
0.00019261
-2.7808e-07
0.000230681
-4.20833e-07
0.000232585
0.000232668
-5.61107e-07
-1.27497e-07
0.000192737
-2.64076e-07
0.000230818
-3.99645e-07
0.000232721
0.000232801
-5.32845e-07
-1.21448e-07
0.000192859
-2.51637e-07
0.000230948
-3.80826e-07
0.00023285
0.000232928
-5.07733e-07
-1.16127e-07
0.000192975
-2.40699e-07
0.000231072
-3.6427e-07
0.000232974
0.000233049
-4.85645e-07
-1.11508e-07
0.000193086
-2.31201e-07
0.000231192
-3.49889e-07
0.000233092
0.000233166
-4.66459e-07
-1.07549e-07
0.000193194
-2.23093e-07
0.000231308
-3.37614e-07
0.000233207
0.000233278
-4.50075e-07
-1.04243e-07
0.000193298
-2.1633e-07
0.00023142
-3.27367e-07
0.000233318
0.000233387
-4.36408e-07
-1.01573e-07
0.0001934
-2.10868e-07
0.000231529
-3.19105e-07
0.000233426
0.000233494
-4.25378e-07
-9.95177e-08
0.000193499
-2.06695e-07
0.000231636
-3.12784e-07
0.000233532
0.000233598
-4.16937e-07
-9.80722e-08
0.000193597
-2.03786e-07
0.000231742
-3.08374e-07
0.000233637
0.000233701
-4.11038e-07
-9.7232e-08
0.000193694
-2.02125e-07
0.000231847
-3.0585e-07
0.000233741
0.000233802
-4.07663e-07
-9.69915e-08
0.000193791
-2.01712e-07
0.000231952
-3.05205e-07
0.000233844
0.000233904
-4.06794e-07
-9.73475e-08
0.000193889
-2.02542e-07
0.000232057
-3.06451e-07
0.000233948
0.000234006
-4.08424e-07
-9.83108e-08
0.000193987
-2.04623e-07
0.000232163
-3.09585e-07
0.000234053
0.000234109
-4.12585e-07
-9.98798e-08
0.000194087
-2.07974e-07
0.000232271
-3.1464e-07
0.00023416
0.000234214
-4.19298e-07
-1.02081e-07
0.000194189
-2.12618e-07
0.000232382
-3.21649e-07
0.000234269
0.000234321
-4.28617e-07
-1.04914e-07
0.000194294
-2.18591e-07
0.000232495
-3.30664e-07
0.000234381
0.00023443
-4.40605e-07
-1.0841e-07
0.000194402
-2.25935e-07
0.000232613
-3.4174e-07
0.000234497
0.000234544
-4.55344e-07
-1.12585e-07
0.000194515
-2.34693e-07
0.000232735
-3.54957e-07
0.000234617
0.000234662
-4.72935e-07
-1.17467e-07
0.000194632
-2.4492e-07
0.000232862
-3.70412e-07
0.000234742
0.000234785
-4.93493e-07
-1.23092e-07
0.000194755
-2.56696e-07
0.000232996
-3.88189e-07
0.000234874
0.000234914
-5.17161e-07
-1.29501e-07
0.000194885
-2.70093e-07
0.000233137
-4.08425e-07
0.000235012
0.00023505
-5.44087e-07
-1.36731e-07
0.000195022
-2.85202e-07
0.000233285
-4.31243e-07
0.000235158
0.000235193
-5.74455e-07
-1.44838e-07
0.000195166
-3.0213e-07
0.000233442
-4.56798e-07
0.000235313
0.000235345
-6.08464e-07
-1.53866e-07
0.00019532
-3.20983e-07
0.00023361
-4.85262e-07
0.000235477
0.000235506
-6.46344e-07
-1.63887e-07
0.000195484
-3.41885e-07
0.000233787
-5.16823e-07
0.000235652
0.000235677
-6.88341e-07
-1.74959e-07
0.000195659
-3.6498e-07
0.000233978
-5.51688e-07
0.000235839
0.00023586
-7.34739e-07
-1.87154e-07
0.000195846
-3.9042e-07
0.000234181
-5.90099e-07
0.000236038
0.000236056
-7.85843e-07
-2.00574e-07
0.000196047
-4.18377e-07
0.000234399
-6.32301e-07
0.000236252
0.000236266
-8.42002e-07
-2.15289e-07
0.000196262
-4.49045e-07
0.000234632
-6.78588e-07
0.000236482
0.000236491
-9.03582e-07
-2.31414e-07
0.000196494
-4.82625e-07
0.000234884
-7.29271e-07
0.000236729
0.000236732
-9.71013e-07
-2.49056e-07
0.000196743
-5.19352e-07
0.000235154
-7.84697e-07
0.000236994
0.000236993
-1.04475e-06
-2.6833e-07
0.000197011
-5.5948e-07
0.000235445
-8.45247e-07
0.00023728
0.000237273
-1.12528e-06
-2.89379e-07
0.0001973
-6.03281e-07
0.000235759
-9.11333e-07
0.000237588
0.000237574
-1.21319e-06
-3.12341e-07
0.000197613
-6.51064e-07
0.000236098
-9.83423e-07
0.00023792
0.0002379
-1.30905e-06
-3.37395e-07
0.00019795
-7.03166e-07
0.000236463
-1.06201e-06
0.000238279
0.000238252
-1.41356e-06
-3.64714e-07
0.000198315
-7.59955e-07
0.000236859
-1.14766e-06
0.000238667
0.000238631
-1.52741e-06
-3.9449e-07
0.000198709
-8.21835e-07
0.000237286
-1.24096e-06
0.000239086
0.000239042
-1.65146e-06
-4.26948e-07
0.000199136
-8.89254e-07
0.000237748
-1.34259e-06
0.000239539
0.000239486
-1.78655e-06
-4.62314e-07
0.000199598
-9.62705e-07
0.000238249
-1.4533e-06
0.00024003
0.000239966
-1.93367e-06
-5.00871e-07
0.000200099
-1.04273e-06
0.00023879
-1.57389e-06
0.000240561
0.000240486
-2.0939e-06
-5.42899e-07
0.000200642
-1.12992e-06
0.000239378
-1.70525e-06
0.000241136
0.000241049
-2.26841e-06
-5.88728e-07
0.000201231
-1.22494e-06
0.000240014
-1.84837e-06
0.00024176
0.000241659
-2.4585e-06
-6.38709e-07
0.00020187
-1.32852e-06
0.000240704
-2.00434e-06
0.000242435
0.000242321
-2.66561e-06
-6.93239e-07
0.000202563
-1.44147e-06
0.000241452
-2.17435e-06
0.000243168
0.000243038
-2.89133e-06
-7.52754e-07
0.000203316
-1.56467e-06
0.000242264
-2.35975e-06
0.000243963
0.000243815
-3.1374e-06
-8.17752e-07
0.000204133
-1.69912e-06
0.000243145
-2.56201e-06
0.000244826
0.000244659
-3.40577e-06
-8.88768e-07
0.000205022
-1.84593e-06
0.000244102
-2.78276e-06
0.000245763
0.000245575
-3.69859e-06
-9.66408e-07
0.000205988
-2.0063e-06
0.000245142
-3.02384e-06
0.000246781
0.000246569
-4.01826e-06
-1.05136e-06
0.00020704
-2.18164e-06
0.000246272
-3.28726e-06
0.000247886
0.00024765
-4.36744e-06
-1.14437e-06
0.000208184
-2.37343e-06
0.000247501
-3.5753e-06
0.000249088
0.000248823
-4.74911e-06
-1.2463e-06
0.00020943
-2.58343e-06
0.000248839
-3.89049e-06
0.000250395
0.000250099
-5.16658e-06
-1.35811e-06
0.000210789
-2.81352e-06
0.000250294
-4.23568e-06
0.000251817
0.000251487
-5.62356e-06
-1.48087e-06
0.000212269
-3.06589e-06
0.000251879
-4.61404e-06
0.000253365
0.000252997
-6.12423e-06
-1.6158e-06
0.000213885
-3.34295e-06
0.000253606
-5.02918e-06
0.000255052
0.000254642
-6.67326e-06
-1.76428e-06
0.000215649
-3.64748e-06
0.000255489
-5.48515e-06
0.000256889
0.000256432
-7.27595e-06
-1.9279e-06
0.000217577
-3.98258e-06
0.000257544
-5.98654e-06
0.000258893
0.000258384
-7.93828e-06
-2.10843e-06
0.000219686
-4.35183e-06
0.000259787
-6.53857e-06
0.00026108
0.000260513
-8.66702e-06
-2.30796e-06
0.000221994
-4.75927e-06
0.000262239
-7.1472e-06
0.000263468
0.000262835
-9.46988e-06
-2.52881e-06
0.000224523
-5.20955e-06
0.000264919
-7.8192e-06
0.000266078
0.000265372
-1.03556e-05
-2.77374e-06
0.000227296
-5.708e-06
0.000267854
-8.56236e-06
0.000268932
0.000268144
-1.13343e-05
-3.04585e-06
0.000230342
-6.26076e-06
0.000271069
-9.38562e-06
0.000272057
0.000271176
-1.24175e-05
-3.3488e-06
0.000233691
-6.87493e-06
0.000274595
-1.02993e-05
0.000275481
0.000274495
-1.36185e-05
-3.68683e-06
0.000237378
-7.55878e-06
0.000278467
-1.13155e-05
0.000279238
0.000278132
-1.49526e-05
-4.06492e-06
0.000241443
-8.32195e-06
0.000282724
-1.2448e-05
0.000283364
0.000282122
-1.64378e-05
-4.48894e-06
0.000245932
-9.17575e-06
0.000287411
-1.37131e-05
0.000287901
0.000286503
-1.80949e-05
-4.96577e-06
0.000250897
-1.01335e-05
0.000292578
-1.51303e-05
0.000292898
0.000291322
-1.99483e-05
-5.50361e-06
0.000256401
-1.1211e-05
0.000298286
-1.67219e-05
0.000298409
0.000296626
-2.20268e-05
-6.11228e-06
0.000262513
-1.24269e-05
0.0003046
-1.85151e-05
0.000304497
0.000302476
-2.43646e-05
-6.80355e-06
0.000269317
-1.38039e-05
0.000311601
-2.0542e-05
0.000311235
0.000308936
-2.70021e-05
-7.59163e-06
0.000276908
-1.53689e-05
0.000319378
-2.28411e-05
0.000318708
0.000316083
-2.99879e-05
-8.49386e-06
0.000285402
-1.71549e-05
0.000328039
-2.54594e-05
0.000327012
0.000324004
-3.33806e-05
-9.53132e-06
0.000294934
-1.92021e-05
0.00033771
-2.84536e-05
0.000336264
0.000332801
-3.7251e-05
-1.07306e-05
0.000305664
-2.15599e-05
0.000348539
-3.18937e-05
0.000346597
0.000342594
-4.16858e-05
-1.21227e-05
0.000317787
-2.42897e-05
0.000360706
-3.58663e-05
0.000358174
0.000353519
-4.67913e-05
-1.37528e-05
0.00033154
-2.74687e-05
0.000374422
-4.04792e-05
0.000371184
0.000365739
-5.26999e-05
-1.56621e-05
0.000347202
-3.11938e-05
0.000389954
-4.58686e-05
0.000385859
0.000379447
-5.95759e-05
-1.7942e-05
0.000365144
-3.55907e-05
0.000407602
-5.22064e-05
0.000402475
0.00039487
-6.76293e-05
-2.06287e-05
0.000385772
-4.08203e-05
0.000427794
-5.97174e-05
0.000421372
0.000412274
-7.71217e-05
-2.39226e-05
0.000409695
-4.70928e-05
0.000450964
-6.86878e-05
0.000442967
0.000431987
-8.84006e-05
-2.78465e-05
0.000437541
-5.46966e-05
0.000477814
-7.95045e-05
0.000467775
0.000454383
-0.000101901
-3.27704e-05
0.000470312
-6.39983e-05
0.000509042
-9.26714e-05
0.000496448
0.000479929
-0.000118217
-3.87906e-05
0.000509102
-7.55403e-05
0.000545792
-0.000108889
0.000529796
0.000509154
-0.000138114
-4.65022e-05
0.000555604
-9.00285e-05
0.000589318
-0.000129098
0.000568866
0.000542708
-0.000162652
-5.62805e-05
0.000611885
-0.000108526
0.000641564
-0.000154647
0.000614986
0.000581304
-0.000193243
-6.91162e-05
0.000681001
-0.000132501
0.000704949
-0.000187419
0.000669904
0.000625769
-0.000231884
-8.62137e-05
0.000767215
-0.000164261
0.000782997
-0.000230176
0.000735819
0.000676904
-0.00028131
-0.000109104
0.000876318
-0.000206904
0.000880797
-0.000287053
0.000815967
0.000735414
-0.000345563
-0.000141751
0.00101807
-0.000266114
0.00100516
-0.00036404
0.000913893
0.000801483
-0.000430109
-0.000185444
0.00120351
-0.000348055
0.00116777
-0.000471765
0.0010376
0.000874273
-0.000544555
-0.000246765
0.00145028
-0.000464837
0.00138584
-0.000622764
0.00119553
0.000950584
-0.000699076
-0.000349933
0.00180021
-0.000640179
0.00167609
-0.00085366
0.00140901
0.0010286
-0.000931681
-0.000403718
0.00220393
-0.000809562
0.00208193
-0.00115003
0.00174948
0.00112592
-0.00124734
-0.000772403
-0.00141179
-0.0017939
-0.00196245
0.000105726
-0.000107838
0.000229871
-0.000152855
0.000369315
-0.000194407
0.000515101
-0.000220053
0.000651781
-0.00020828
0.000774053
-0.000153894
0.000891662
-6.22084e-05
0.000983153
0.000100027
0.000999395
0.000325782
0.000942913
0.000504165
0.000843797
0.00058933
0.000727304
0.000584242
0.000622058
0.0005094
0.000541718
0.000413672
0.000480074
0.000334214
0.000429449
0.000272676
0.00038529
0.000224079
0.000346371
0.000185088
0.00031289
0.000154043
0.000284773
0.00012954
0.000261384
0.000110036
0.000241879
9.41883e-05
0.000225484
8.10539e-05
0.000211585
7.00062e-05
0.000199716
6.06034e-05
0.000189532
5.25133e-05
0.000180772
4.5481e-05
0.000173239
3.93099e-05
0.000166776
3.38471e-05
0.000161263
2.89718e-05
0.0001566
2.45894e-05
0.000152705
2.0624e-05
0.000149513
1.70178e-05
0.000146971
1.37238e-05
0.000145032
1.06962e-05
0.000143647
7.8985e-06
0.000142775
5.3121e-06
0.000142377
2.92535e-06
0.000142418
7.27606e-07
0.000142863
-1.2902e-06
0.000143679
-3.13418e-06
0.000144832
-4.80887e-06
0.00014629
-6.32088e-06
0.00014802
-7.67537e-06
0.000149991
-8.87601e-06
0.000152171
-9.92669e-06
0.000154529
-1.08318e-05
0.000157037
-1.15965e-05
0.000159667
-1.22264e-05
0.000162391
-1.27279e-05
0.000165184
-1.31081e-05
0.000168022
-1.33746e-05
0.000170884
-1.35356e-05
0.000173748
-1.35996e-05
0.000176598
-1.35754e-05
0.000179417
-1.3472e-05
0.000182191
-1.32983e-05
0.000184907
-1.30632e-05
0.000187556
-1.27751e-05
0.000190128
-1.24422e-05
0.000192616
-1.20722e-05
0.000195016
-1.16723e-05
0.000197323
-1.12492e-05
0.000199533
-1.08091e-05
0.000201647
-1.03573e-05
0.000203662
-9.89891e-06
0.000205579
-9.43823e-06
0.000207398
-8.97906e-06
0.000209122
-8.52465e-06
0.000210753
-8.07781e-06
0.000212292
-7.64084e-06
0.000213743
-7.21565e-06
0.000215109
-6.80377e-06
0.000216393
-6.40636e-06
0.000217599
-6.02431e-06
0.00021873
-5.65824e-06
0.000219789
-5.30851e-06
0.000220781
-4.97531e-06
0.000221709
-4.65865e-06
0.000222575
-4.35839e-06
0.000223385
-4.0743e-06
0.00022414
-3.806e-06
0.000224844
-3.5531e-06
0.000225501
-3.3151e-06
0.000226113
-3.09146e-06
0.000226683
-2.88164e-06
0.000227213
-2.68505e-06
0.000227707
-2.50111e-06
0.000228167
-2.3292e-06
0.000228595
-2.16873e-06
0.000228993
-2.01913e-06
0.000229363
-1.87981e-06
0.000229708
-1.75023e-06
0.000230029
-1.62984e-06
0.000230328
-1.51812e-06
0.000230606
-1.41457e-06
0.000230865
-1.31873e-06
0.000231107
-1.23015e-06
0.000231333
-1.14841e-06
0.000231544
-1.0731e-06
0.000231741
-1.00386e-06
0.000231925
-9.40347e-07
0.000232099
-8.82225e-07
0.000232261
-8.29197e-07
0.000232415
-7.80987e-07
0.000232559
-7.37343e-07
0.000232696
-6.9803e-07
0.000232826
-6.6283e-07
0.00023295
-6.31571e-07
0.000233068
-6.04069e-07
0.000233182
-5.80186e-07
0.000233292
-5.59784e-07
0.000233398
-5.42764e-07
0.000233502
-5.29032e-07
0.000233603
-5.18514e-07
0.000233704
-5.11164e-07
0.000233803
-5.06945e-07
0.000233902
-5.05843e-07
0.000234001
-5.07857e-07
0.000234102
-5.13008e-07
0.000234204
-5.21337e-07
0.000234308
-5.32904e-07
0.000234415
-5.47788e-07
0.000234526
-5.66094e-07
0.000234641
-5.87937e-07
0.000234761
-6.13469e-07
0.000234887
-6.42856e-07
0.000235019
-6.76302e-07
0.000235158
-7.14024e-07
0.000235306
-7.56265e-07
0.000235463
-8.03313e-07
0.00023563
-8.5547e-07
0.000235809
-9.13093e-07
0.000235999
-9.76555e-07
0.000236204
-1.04629e-06
0.000236423
-1.12276e-06
0.000236658
-1.20648e-06
0.000236912
-1.29801e-06
0.000237184
-1.398e-06
0.000237478
-1.5071e-06
0.000237795
-1.62608e-06
0.000238137
-1.75576e-06
0.000238507
-1.89706e-06
0.000238907
-2.05094e-06
0.000239339
-2.21852e-06
0.000239806
-2.40099e-06
0.000240312
-2.59969e-06
0.000240859
-2.81604e-06
0.000241452
-3.05167e-06
0.000242095
-3.30834e-06
0.000242792
-3.588e-06
0.000243547
-3.8928e-06
0.000244367
-4.22513e-06
0.000245256
-4.58763e-06
0.000246221
-4.98323e-06
0.000247268
-5.4152e-06
0.000248406
-5.88717e-06
0.000249643
-6.40319e-06
0.000250987
-6.9678e-06
0.000252449
-7.58608e-06
0.00025404
-8.26372e-06
0.000255771
-9.00715e-06
0.000257656
-9.82361e-06
0.00025971
-1.07213e-05
0.00026195
-1.17096e-05
0.000264394
-1.2799e-05
0.000267061
-1.40017e-05
0.000269975
-1.53314e-05
0.00027316
-1.68042e-05
0.000276646
-1.84383e-05
0.000280463
-2.02551e-05
0.000284648
-2.22794e-05
0.00028924
-2.45401e-05
0.000294284
-2.7071e-05
0.000299832
-2.99123e-05
0.000305941
-3.31113e-05
0.000312677
-3.67245e-05
0.000320116
-4.08196e-05
0.000328343
-4.54781e-05
0.000337457
-5.07989e-05
0.000347568
-5.69028e-05
0.000358806
-6.39379e-05
0.000371318
-7.20883e-05
0.000385271
-8.1582e-05
0.000400859
-9.27093e-05
0.000418289
-0.000105831
0.000437808
-0.00012142
0.000459659
-0.000140068
0.000484112
-0.000162568
0.000511388
-0.000189928
0.000541659
-0.000223514
0.000574875
-0.0002651
0.000610658
-0.000317094
0.000647787
-0.000382692
0.000683851
-0.000466172
0.000712592
-0.000573297
0.000724485
-0.000710969
0.000682114
-0.00088931
0.000543112
-0.00110834
-0.00141934
8.54371e-05
-0.000193275
0.000183998
-0.000251416
0.000293775
-0.000304185
0.000408793
-0.000335071
0.000522954
-0.000322441
0.000616776
-0.000247716
0.00067941
-0.000124842
0.000728699
5.07386e-05
0.000751977
0.000302505
0.000731205
0.000524935
0.000680847
0.000639688
0.000610706
0.000654382
0.000535543
0.000584565
0.000473878
0.000475337
0.000425016
0.000383077
0.000383532
0.00031416
0.000346872
0.00026074
0.000314736
0.000217224
0.000287265
0.000181515
0.000264114
0.000152691
0.000244625
0.000129525
0.00022812
0.000110693
0.000214029
9.51448e-05
0.000201913
8.21223e-05
0.000191443
7.10731e-05
0.000182372
6.15843e-05
0.00017451
5.33435e-05
0.000167707
4.61125e-05
0.000161847
3.97072e-05
0.000156835
3.39839e-05
0.000152595
2.88301e-05
0.000149061
2.41572e-05
0.000146184
1.98956e-05
0.000143918
1.59893e-05
0.000142224
1.23899e-05
0.000141062
9.06096e-06
0.000140393
5.98061e-06
0.000140186
3.1328e-06
0.000140407
5.06352e-07
0.000141025
-1.90768e-06
0.000142007
-4.11598e-06
0.000143321
-6.12381e-06
0.000144937
-7.93632e-06
0.000146821
-9.55899e-06
0.00014894
-1.0996e-05
0.000151265
-1.22515e-05
0.000153764
-1.33306e-05
0.000156407
-1.42392e-05
0.000159165
-1.49841e-05
0.00016201
-1.5573e-05
0.000164916
-1.60146e-05
0.00016786
-1.63183e-05
0.000170818
-1.64941e-05
0.000173771
-1.65525e-05
0.0001767
-1.65045e-05
0.000179589
-1.63612e-05
0.000182425
-1.61337e-05
0.000185194
-1.58327e-05
0.000187888
-1.54687e-05
0.000190497
-1.50516e-05
0.000193016
-1.45909e-05
0.000195439
-1.40954e-05
0.000197763
-1.35732e-05
0.000199985
-1.30316e-05
0.000202106
-1.24774e-05
0.000204123
-1.19163e-05
0.000206038
-1.13537e-05
0.000207853
-1.07941e-05
0.00020957
-1.02412e-05
0.000211191
-9.69844e-06
0.000212718
-9.16847e-06
0.000214156
-8.65349e-06
0.000215508
-8.15526e-06
0.000216776
-7.67511e-06
0.000217966
-7.21403e-06
0.00021908
-6.77265e-06
0.000220123
-6.35141e-06
0.000221098
-5.95042e-06
0.000222009
-5.56964e-06
0.00022286
-5.20887e-06
0.000223653
-4.86775e-06
0.000224393
-4.54583e-06
0.000225083
-4.24255e-06
0.000225725
-3.9573e-06
0.000226323
-3.68943e-06
0.000226879
-3.43822e-06
0.000227397
-3.20296e-06
0.000227879
-2.98292e-06
0.000228327
-2.77737e-06
0.000228744
-2.58557e-06
0.000229132
-2.40681e-06
0.000229492
-2.2404e-06
0.000229828
-2.08566e-06
0.00023014
-1.94193e-06
0.00023043
-1.80859e-06
0.000230701
-1.68504e-06
0.000230953
-1.57071e-06
0.000231188
-1.46505e-06
0.000231407
-1.36757e-06
0.000231612
-1.27779e-06
0.000231803
-1.19524e-06
0.000231982
-1.11953e-06
0.00023215
-1.05026e-06
0.000232308
-9.87064e-07
0.000232457
-9.29621e-07
0.000232597
-8.77612e-07
0.00023273
-8.30772e-07
0.000232856
-7.88848e-07
0.000232976
-7.51603e-07
0.00023309
-7.18847e-07
0.000233201
-6.90392e-07
0.000233307
-6.66093e-07
0.00023341
-6.45813e-07
0.00023351
-6.29445e-07
0.000233609
-6.16906e-07
0.000233706
-6.0814e-07
0.000233802
-6.03094e-07
0.000233898
-6.01758e-07
0.000233994
-6.04135e-07
0.000234091
-6.10241e-07
0.00023419
-6.20123e-07
0.000234291
-6.33859e-07
0.000234395
-6.51544e-07
0.000234502
-6.73289e-07
0.000234613
-6.99246e-07
0.00023473
-7.29586e-07
0.000234851
-7.64509e-07
0.000234979
-8.04255e-07
0.000235114
-8.49079e-07
0.000235257
-8.9928e-07
0.000235409
-9.55175e-07
0.000235571
-1.01715e-06
0.000235743
-1.08562e-06
0.000235928
-1.16102e-06
0.000236125
-1.24387e-06
0.000236337
-1.33471e-06
0.000236565
-1.43415e-06
0.00023681
-1.54287e-06
0.000237073
-1.66162e-06
0.000237357
-1.79118e-06
0.000237664
-1.93246e-06
0.000237995
-2.08642e-06
0.000238352
-2.25414e-06
0.000238737
-2.43679e-06
0.000239155
-2.63566e-06
0.000239606
-2.85217e-06
0.000240094
-3.08787e-06
0.000240622
-3.34449e-06
0.000241195
-3.6239e-06
0.000241814
-3.92818e-06
0.000242486
-4.25963e-06
0.000243214
-4.62078e-06
0.000244003
-5.01443e-06
0.000244859
-5.44367e-06
0.000245788
-5.91193e-06
0.000246796
-6.42306e-06
0.00024789
-6.98128e-06
0.000249078
-7.59132e-06
0.000250369
-8.25847e-06
0.000251771
-8.98863e-06
0.000253296
-9.78845e-06
0.000254954
-1.06654e-05
0.000256758
-1.16277e-05
0.000258722
-1.26851e-05
0.000260861
-1.38481e-05
0.000263191
-1.5129e-05
0.000265731
-1.65417e-05
0.000268501
-1.8102e-05
0.000271525
-1.98281e-05
0.000274828
-2.17408e-05
0.000278437
-2.38643e-05
0.000282384
-2.62267e-05
0.000286704
-2.88603e-05
0.000291437
-3.18032e-05
0.000296624
-3.51001e-05
0.000302317
-3.88034e-05
0.000308567
-4.29754e-05
0.000315438
-4.76902e-05
0.000322996
-5.30363e-05
0.000331318
-5.91204e-05
0.000340486
-6.60714e-05
0.000350594
-7.40459e-05
0.000361741
-8.32356e-05
0.000374036
-9.3877e-05
0.000387588
-0.000106261
0.00040251
-0.000120753
0.000418893
-0.000137803
0.000436816
-0.000157991
0.000456276
-0.000182028
0.000477183
-0.000210836
0.000499228
-0.000245559
0.00052179
-0.000287661
0.000543646
-0.00033895
0.000562615
-0.00040166
0.000574872