/*--------------------------------*- C++ -*----------------------------------*\
  =========                 |
  \\      /  F ield         | OpenFOAM: The Open Source CFD Toolbox
   \\    /   O peration     | Website:  https://openfoam.org
    \\  /    A nd           | Version:  dev
     \\/     M anipulation  |
\*---------------------------------------------------------------------------*/
FoamFile
{
    version     2.0;
    format      ascii;
    class       volVectorField;
    location    "16";
    object      U;
}
// * * * * * * * * * * * * * * * * * * * * * * * * * * * * * * * * * * * * * //

dimensions      [0 1 -1 0 0 0 0];

internalField   nonuniform List<vector> 
8000
(
(0.0997625 -4.07268e-05 0)
(0.100124 -0.000283596 0)
(0.100143 -0.000622239 0)
(0.0998903 -9.23811e-05 0)
(0.0999343 -7.2157e-05 0)
(0.100902 -0.00084273 0)
(0.101192 -0.00224189 0)
(0.0988512 -0.000795777 0)
(0.100407 -7.56436e-05 0)
(0.102142 -0.00114485 0)
(0.10311 -0.00379513 0)
(0.0984403 -0.00159987 0)
(0.101034 8.63143e-05 0)
(0.103614 -0.000828283 0)
(0.105611 -0.00442269 0)
(0.0994552 -0.00205004 0)
(0.101299 0.000349392 0)
(0.104896 0.000414767 0)
(0.10814 -0.0034183 0)
(0.102054 -0.00121669 0)
(0.10079 0.000825758 0)
(0.105376 0.00260804 0)
(0.109885 -0.000326925 0)
(0.105899 0.00187226 0)
(0.0987788 0.00155236 0)
(0.104389 0.00551002 0)
(0.10986 0.00493772 0)
(0.109399 0.0077831 0)
(0.0946804 0.00256056 0)
(0.101286 0.0087063 0)
(0.10705 0.0116947 0)
(0.110317 0.0164032 0)
(0.0882218 0.00379795 0)
(0.0955492 0.0115714 0)
(0.100921 0.0183698 0)
(0.106186 0.0260935 0)
(0.079701 0.00502915 0)
(0.087285 0.0134429 0)
(0.0918671 0.0228829 0)
(0.0967947 0.0336727 0)
(0.0699066 0.00592005 0)
(0.0774012 0.0140287 0)
(0.081015 0.0243997 0)
(0.08449 0.0364568 0)
(0.0599405 0.00623658 0)
(0.0673536 0.0134532 0)
(0.0701464 0.0233913 0)
(0.0717792 0.034536 0)
(0.0507921 0.00598639 0)
(0.0585153 0.0121801 0)
(0.0608391 0.0209243 0)
(0.0610254 0.0300815 0)
(0.0425067 0.00533435 0)
(0.0509398 0.0106329 0)
(0.0532345 0.0179862 0)
(0.0527976 0.0251757 0)
(0.0353765 0.00432106 0)
(0.0446143 0.00893481 0)
(0.0470562 0.0150116 0)
(0.0465649 0.0207768 0)
(0.0298225 0.00300509 0)
(0.0393281 0.00699873 0)
(0.0418761 0.0120447 0)
(0.0415217 0.0169104 0)
(0.0259892 0.00176814 0)
(0.03494 0.00504344 0)
(0.0374097 0.0092755 0)
(0.0371639 0.013557 0)
(0.0235148 0.000972394 0)
(0.0313632 0.00353894 0)
(0.0335194 0.00708479 0)
(0.0332875 0.0108701 0)
(0.0218154 0.000624397 0)
(0.0284595 0.0026822 0)
(0.030166 0.00562938 0)
(0.0298877 0.00889829 0)
(0.0204387 0.000534658 0)
(0.0260745 0.00229753 0)
(0.0273417 0.00473339 0)
(0.027003 0.0074858 0)
(0.0191695 0.000523975 0)
(0.0240737 0.00210826 0)
(0.0249895 0.00412585 0)
(0.0246033 0.00642405 0)
(0.0179609 0.000506051 0)
(0.0223576 0.00194847 0)
(0.0230177 0.00363799 0)
(0.0226078 0.00556861 0)
(0.0168321 0.000470548 0)
(0.0208675 0.00177589 0)
(0.0213456 0.00321034 0)
(0.0209353 0.00484649 0)
(0.0158009 0.000427829 0)
(0.0195677 0.00159767 0)
(0.0199157 0.00282899 0)
(0.0195224 0.00422344 0)
(0.014872 0.000384524 0)
(0.0184314 0.00142426 0)
(0.0186872 0.00248866 0)
(0.0183215 0.00368003 0)
(0.0140427 0.000343028 0)
(0.0174381 0.00126072 0)
(0.0176296 0.00218428 0)
(0.0172958 0.00320315 0)
(0.0133078 0.000304132 0)
(0.0165711 0.001109 0)
(0.0167187 0.00191122 0)
(0.0164169 0.00278266 0)
(0.0126605 0.00026805 0)
(0.0158164 0.000969542 0)
(0.0159346 0.00166549 0)
(0.0156628 0.00241004 0)
(0.0120944 0.000234722 0)
(0.0151625 0.000842012 0)
(0.0152614 0.00144368 0)
(0.0150165 0.00207814 0)
(0.0116025 0.000203914 0)
(0.014599 0.000725497 0)
(0.0146856 0.00124264 0)
(0.0144641 0.00178081 0)
(0.0111795 0.00017551 0)
(0.014118 0.000619201 0)
(0.0141965 0.00105991 0)
(0.0139952 0.00151312 0)
(0.0108184 0.000148557 0)
(0.0137108 0.000521382 0)
(0.0137843 0.000892762 0)
(0.0136004 0.00127074 0)
(0.0105176 0.000123846 0)
(0.013372 0.000432187 0)
(0.0134416 0.00074016 0)
(0.0132725 0.00105074 0)
(0.0102693 0.000101426 0)
(0.013094 0.00035132 0)
(0.0131617 0.000601486 0)
(0.0130057 0.000851018 0)
(0.0100693 8.05033e-05 0)
(0.0128713 0.00027707 0)
(0.0129388 0.000474139 0)
(0.0127949 0.000668005 0)
(0.00991523 6.05758e-05 0)
(0.0127 0.000207863 0)
(0.0127685 0.000355692 0)
(0.0126359 0.000498632 0)
(0.00980404 4.17738e-05 0)
(0.0125762 0.000143396 0)
(0.0126465 0.000245546 0)
(0.0125245 0.000341923 0)
(0.00973256 2.43691e-05 0)
(0.0124963 8.39685e-05 0)
(0.0125688 0.000143866 0)
(0.0124566 0.00019758 0)
(0.00969764 8.51646e-06 0)
(0.0124565 2.94412e-05 0)
(0.0125319 5.03274e-05 0)
(0.012429 6.48866e-05 0)
(0.009696 -6.4059e-06 0)
(0.0124539 -2.09452e-05 0)
(0.0125326 -3.57242e-05 0)
(0.0124385 -5.69154e-05 0)
(0.0097256 -2.00865e-05 0)
(0.0124855 -6.67296e-05 0)
(0.0125676 -0.000114179 0)
(0.012482 -0.000168079 0)
(0.00978313 -3.24577e-05 0)
(0.0125479 -0.00010822 0)
(0.0126337 -0.000185276 0)
(0.0125563 -0.000268872 0)
(0.00986603 -4.37296e-05 0)
(0.0126383 -0.000145804 0)
(0.0127279 -0.000249557 0)
(0.0126586 -0.000359943 0)
(0.00997193 -5.39161e-05 0)
(0.0127539 -0.000179575 0)
(0.0128476 -0.000307238 0)
(0.012786 -0.000441606 0)
(0.0100984 -6.30311e-05 0)
(0.0128918 -0.000209622 0)
(0.0129898 -0.0003585 0)
(0.0129359 -0.00051411 0)
(0.0102432 -7.10904e-05 0)
(0.0130496 -0.000236041 0)
(0.013152 -0.000403513 0)
(0.0131054 -0.000577692 0)
(0.0104038 -7.81135e-05 0)
(0.0132246 -0.000258933 0)
(0.0133314 -0.000442455 0)
(0.013292 -0.000632614 0)
(0.0105782 -8.4127e-05 0)
(0.0134143 -0.000278414 0)
(0.0135256 -0.000475537 0)
(0.0134931 -0.000679186 0)
(0.0107642 -8.91645e-05 0)
(0.0136165 -0.00029462 0)
(0.0137321 -0.000503001 0)
(0.0137062 -0.000717761 0)
(0.0109597 -9.32631e-05 0)
(0.0138287 -0.000307703 0)
(0.0139487 -0.000525116 0)
(0.0139291 -0.000748719 0)
(0.0111627 -9.64666e-05 0)
(0.0140489 -0.000317829 0)
(0.0141731 -0.000542173 0)
(0.0141595 -0.000772475 0)
(0.0113714 -9.88241e-05 0)
(0.014275 -0.000325174 0)
(0.0144034 -0.00055448 0)
(0.0143953 -0.000789475 0)
(0.0115841 -0.000100391 0)
(0.0145051 -0.000329927 0)
(0.0146375 -0.000562367 0)
(0.0146346 -0.000800192 0)
(0.0117991 -0.000101226 0)
(0.0147376 -0.000332289 0)
(0.0148738 -0.000566177 0)
(0.0148756 -0.000805122 0)
(0.012015 -0.000101388 0)
(0.0149708 -0.000332464 0)
(0.0151105 -0.000566261 0)
(0.0151166 -0.000804771 0)
(0.0122303 -0.000100936 0)
(0.0152032 -0.00033066 0)
(0.0153463 -0.000562982 0)
(0.0153563 -0.000799665 0)
(0.012444 -9.99367e-05 0)
(0.0154336 -0.000327089 0)
(0.0155798 -0.000556708 0)
(0.0155932 -0.000790328 0)
(0.0126549 -9.84524e-05 0)
(0.0156608 -0.000321963 0)
(0.0158098 -0.000547796 0)
(0.0158263 -0.000777272 0)
(0.012862 -9.65457e-05 0)
(0.0158838 -0.000315484 0)
(0.0160354 -0.000536595 0)
(0.0160545 -0.000760995 0)
(0.0130645 -9.42762e-05 0)
(0.0161017 -0.000307848 0)
(0.0162557 -0.00052344 0)
(0.016277 -0.000741975 0)
(0.0132618 -9.17012e-05 0)
(0.0163138 -0.000299242 0)
(0.0164699 -0.00050865 0)
(0.016493 -0.00072067 0)
(0.0134533 -8.88747e-05 0)
(0.0165195 -0.000289842 0)
(0.0166776 -0.000492525 0)
(0.0167021 -0.000697506 0)
(0.0136385 -8.5847e-05 0)
(0.0167183 -0.000279812 0)
(0.0168781 -0.000475345 0)
(0.0169038 -0.00067288 0)
(0.013817 -8.26657e-05 0)
(0.0169099 -0.000269304 0)
(0.0170711 -0.000457367 0)
(0.0170977 -0.000647157 0)
(0.0139886 -7.9373e-05 0)
(0.0170939 -0.000258455 0)
(0.0172564 -0.000438824 0)
(0.0172836 -0.000620668 0)
(0.0141531 -7.60073e-05 0)
(0.0172702 -0.000247388 0)
(0.0174338 -0.000419926 0)
(0.0174614 -0.00059371 0)
(0.0143103 -7.26031e-05 0)
(0.0174387 -0.000236215 0)
(0.0176032 -0.000400862 0)
(0.017631 -0.000566546 0)
(0.0144603 -6.91908e-05 0)
(0.0175993 -0.000225033 0)
(0.0177646 -0.000381794 0)
(0.0177923 -0.000539407 0)
(0.0146031 -6.57968e-05 0)
(0.0177522 -0.000213926 0)
(0.0179181 -0.000362867 0)
(0.0179456 -0.000512494 0)
(0.0147387 -6.24439e-05 0)
(0.0178972 -0.000202965 0)
(0.0180637 -0.000344202 0)
(0.0180909 -0.000485976 0)
(0.0148672 -5.91514e-05 0)
(0.0180347 -0.000192214 0)
(0.0182016 -0.000325903 0)
(0.0182283 -0.000459998 0)
(0.0149888 -5.59358e-05 0)
(0.0181648 -0.000181722 0)
(0.018332 -0.000308055 0)
(0.0183582 -0.00043468 0)
(0.0151037 -5.28106e-05 0)
(0.0182876 -0.000171531 0)
(0.0184551 -0.000290728 0)
(0.0184806 -0.000410116 0)
(0.0152121 -4.9786e-05 0)
(0.0184034 -0.000161675 0)
(0.0185711 -0.000273976 0)
(0.0185959 -0.000386384 0)
(0.0153142 -4.68699e-05 0)
(0.0185125 -0.000152177 0)
(0.0186803 -0.000257841 0)
(0.0187043 -0.00036354 0)
(0.0154103 -4.40681e-05 0)
(0.018615 -0.000143058 0)
(0.0187829 -0.000242354 0)
(0.0188062 -0.000341624 0)
(0.0155005 -4.13846e-05 0)
(0.0187114 -0.000134329 0)
(0.0188793 -0.000227534 0)
(0.0189018 -0.000320664 0)
(0.0155852 -3.88222e-05 0)
(0.0188018 -0.000125997 0)
(0.0189696 -0.000213393 0)
(0.0189914 -0.000300673 0)
(0.0156646 -3.63817e-05 0)
(0.0188865 -0.000118066 0)
(0.0190543 -0.000199935 0)
(0.0190753 -0.000281657 0)
(0.015739 -3.40629e-05 0)
(0.0189659 -0.000110533 0)
(0.0191336 -0.000187158 0)
(0.0191538 -0.00026361 0)
(0.0158086 -3.18647e-05 0)
(0.0190402 -0.000103396 0)
(0.0192078 -0.000175054 0)
(0.0192271 -0.00024652 0)
(0.0158737 -2.97857e-05 0)
(0.0191096 -9.66465e-05 0)
(0.0192771 -0.000163611 0)
(0.0192957 -0.000230368 0)
(0.0159345 -2.78227e-05 0)
(0.0191745 -9.0276e-05 0)
(0.0193418 -0.000152812 0)
(0.0193597 -0.000215132 0)
(0.0159913 -2.59729e-05 0)
(0.019235 -8.42737e-05 0)
(0.0194023 -0.000142639 0)
(0.0194194 -0.000200784 0)
(0.0160443 -2.42321e-05 0)
(0.0192915 -7.86274e-05 0)
(0.0194586 -0.000133073 0)
(0.0194751 -0.000187294 0)
(0.0160937 -2.25969e-05 0)
(0.0193442 -7.33246e-05 0)
(0.0195112 -0.000124089 0)
(0.019527 -0.00017463 0)
(0.0161398 -2.10631e-05 0)
(0.0193934 -6.83519e-05 0)
(0.0195602 -0.000115666 0)
(0.0195753 -0.000162758 0)
(0.0161827 -1.96262e-05 0)
(0.0194392 -6.36948e-05 0)
(0.0196059 -0.000107779 0)
(0.0196203 -0.000151644 0)
(0.0162228 -1.82821e-05 0)
(0.0194819 -5.93387e-05 0)
(0.0196484 -0.000100402 0)
(0.0196623 -0.000141252 0)
(0.01626 -1.70263e-05 0)
(0.0195216 -5.52695e-05 0)
(0.019688 -9.35129e-05 0)
(0.0197013 -0.000131548 0)
(0.0162948 -1.58544e-05 0)
(0.0195586 -5.14732e-05 0)
(0.0197249 -8.70862e-05 0)
(0.0197377 -0.000122497 0)
(0.0163271 -1.47621e-05 0)
(0.0195931 -4.79352e-05 0)
(0.0197592 -8.10979e-05 0)
(0.0197715 -0.000114066 0)
(0.0163572 -1.37453e-05 0)
(0.0196252 -4.46425e-05 0)
(0.0197912 -7.55251e-05 0)
(0.019803 -0.000106221 0)
(0.0163853 -1.27997e-05 0)
(0.0196551 -4.15817e-05 0)
(0.0198209 -7.03452e-05 0)
(0.0198323 -9.89294e-05 0)
(0.0164114 -1.19217e-05 0)
(0.019683 -3.87397e-05 0)
(0.0198487 -6.55364e-05 0)
(0.0198596 -9.21616e-05 0)
(0.0164357 -1.11069e-05 0)
(0.0197089 -3.61044e-05 0)
(0.0198745 -6.1078e-05 0)
(0.019885 -8.58875e-05 0)
(0.0164584 -1.03523e-05 0)
(0.0197331 -3.36643e-05 0)
(0.0198986 -5.69497e-05 0)
(0.0199087 -8.00787e-05 0)
(0.0164796 -9.65446e-06 0)
(0.0197557 -3.14079e-05 0)
(0.0199211 -5.31326e-05 0)
(0.0199308 -7.47088e-05 0)
(0.0164993 -9.01014e-06 0)
(0.0197768 -2.93251e-05 0)
(0.019942 -4.96091e-05 0)
(0.0199514 -6.97522e-05 0)
(0.0165178 -8.41601e-06 0)
(0.0197965 -2.74055e-05 0)
(0.0199616 -4.63625e-05 0)
(0.0199707 -6.51852e-05 0)
(0.016535 -7.86902e-06 0)
(0.0198149 -2.56401e-05 0)
(0.0199799 -4.33769e-05 0)
(0.0199887 -6.09856e-05 0)
(0.0165511 -7.36655e-06 0)
(0.0198321 -2.40196e-05 0)
(0.019997 -4.06369e-05 0)
(0.0200056 -5.71322e-05 0)
(0.0165663 -6.90649e-06 0)
(0.0198483 -2.25369e-05 0)
(0.0200131 -3.81295e-05 0)
(0.0200214 -5.36056e-05 0)
(0.0165805 -6.48634e-06 0)
(0.0198634 -2.11837e-05 0)
(0.0200282 -3.58412e-05 0)
(0.0200362 -5.03878e-05 0)
(0.0165938 -6.10394e-06 0)
(0.0198777 -1.99531e-05 0)
(0.0200424 -3.37606e-05 0)
(0.0200501 -4.74621e-05 0)
(0.0166064 -5.75706e-06 0)
(0.0198912 -1.88389e-05 0)
(0.0200558 -3.18769e-05 0)
(0.0200633 -4.48132e-05 0)
(0.0166183 -5.44393e-06 0)
(0.0199039 -1.78348e-05 0)
(0.0200684 -3.01798e-05 0)
(0.0200757 -4.24267e-05 0)
(0.0166296 -5.16289e-06 0)
(0.019916 -1.69359e-05 0)
(0.0200804 -2.86606e-05 0)
(0.0200875 -4.02908e-05 0)
(0.0166404 -4.91231e-06 0)
(0.0199275 -1.61371e-05 0)
(0.0200918 -2.73112e-05 0)
(0.0200987 -3.83933e-05 0)
(0.0166506 -4.6915e-06 0)
(0.0199385 -1.54348e-05 0)
(0.0201027 -2.61243e-05 0)
(0.0201094 -3.67241e-05 0)
(0.0166604 -4.49928e-06 0)
(0.019949 -1.48252e-05 0)
(0.0201132 -2.50934e-05 0)
(0.0201197 -3.52743e-05 0)
(0.0166699 -4.3337e-06 0)
(0.0199592 -1.43041e-05 0)
(0.0201232 -2.42135e-05 0)
(0.0201296 -3.40366e-05 0)
(0.016679 -4.19433e-06 0)
(0.019969 -1.38695e-05 0)
(0.020133 -2.34794e-05 0)
(0.0201391 -3.3004e-05 0)
(0.0166879 -4.08047e-06 0)
(0.0199785 -1.35187e-05 0)
(0.0201424 -2.28872e-05 0)
(0.0201484 -3.2171e-05 0)
(0.0166965 -3.99149e-06 0)
(0.0199879 -1.32504e-05 0)
(0.0201516 -2.24344e-05 0)
(0.0201575 -3.15337e-05 0)
(0.016705 -3.92729e-06 0)
(0.019997 -1.30632e-05 0)
(0.0201607 -2.21187e-05 0)
(0.0201664 -3.10887e-05 0)
(0.0167135 -3.88769e-06 0)
(0.0200061 -1.29561e-05 0)
(0.0201697 -2.19382e-05 0)
(0.0201752 -3.08345e-05 0)
(0.0167218 -3.87215e-06 0)
(0.0200152 -1.29289e-05 0)
(0.0201786 -2.18928e-05 0)
(0.020184 -3.07699e-05 0)
(0.0167302 -3.88026e-06 0)
(0.0200242 -1.29813e-05 0)
(0.0201876 -2.19828e-05 0)
(0.0201927 -3.0895e-05 0)
(0.0167386 -3.91238e-06 0)
(0.0200333 -1.31142e-05 0)
(0.0201966 -2.22086e-05 0)
(0.0202016 -3.12109e-05 0)
(0.0167472 -3.9686e-06 0)
(0.0200426 -1.33284e-05 0)
(0.0202057 -2.25722e-05 0)
(0.0202105 -3.172e-05 0)
(0.0167559 -4.05024e-06 0)
(0.020052 -1.3626e-05 0)
(0.020215 -2.3076e-05 0)
(0.0202196 -3.24262e-05 0)
(0.0167648 -4.15735e-06 0)
(0.0200616 -1.40086e-05 0)
(0.0202245 -2.37238e-05 0)
(0.020229 -3.33344e-05 0)
(0.016774 -4.29103e-06 0)
(0.0200716 -1.44792e-05 0)
(0.0202343 -2.45197e-05 0)
(0.0202386 -3.44506e-05 0)
(0.0167835 -4.45171e-06 0)
(0.0200819 -1.50404e-05 0)
(0.0202445 -2.54691e-05 0)
(0.0202486 -3.57828e-05 0)
(0.0167934 -4.64027e-06 0)
(0.0200927 -1.56958e-05 0)
(0.0202551 -2.65788e-05 0)
(0.020259 -3.73398e-05 0)
(0.0168038 -4.85828e-06 0)
(0.0201039 -1.64505e-05 0)
(0.0202662 -2.78559e-05 0)
(0.0202698 -3.91317e-05 0)
(0.0168147 -5.10741e-06 0)
(0.0201158 -1.73093e-05 0)
(0.0202778 -2.93091e-05 0)
(0.0202813 -4.11706e-05 0)
(0.0168262 -5.38924e-06 0)
(0.0201282 -1.8278e-05 0)
(0.0202901 -3.09477e-05 0)
(0.0202933 -4.34699e-05 0)
(0.0168383 -5.70595e-06 0)
(0.0201414 -1.93634e-05 0)
(0.020303 -3.27832e-05 0)
(0.020306 -4.6045e-05 0)
(0.0168512 -6.05917e-06 0)
(0.0201554 -2.05721e-05 0)
(0.0203168 -3.48275e-05 0)
(0.0203195 -4.89131e-05 0)
(0.0168649 -6.45153e-06 0)
(0.0201702 -2.19124e-05 0)
(0.0203314 -3.70943e-05 0)
(0.0203338 -5.20932e-05 0)
(0.0168795 -6.88526e-06 0)
(0.0201861 -2.33934e-05 0)
(0.020347 -3.95987e-05 0)
(0.0203491 -5.56062e-05 0)
(0.0168951 -7.36338e-06 0)
(0.0202031 -2.50249e-05 0)
(0.0203636 -4.23577e-05 0)
(0.0203654 -5.94758e-05 0)
(0.0169118 -7.89011e-06 0)
(0.0202212 -2.68185e-05 0)
(0.0203814 -4.53892e-05 0)
(0.0203829 -6.37276e-05 0)
(0.0169297 -8.46844e-06 0)
(0.0202407 -2.87858e-05 0)
(0.0204006 -4.87142e-05 0)
(0.0204016 -6.83904e-05 0)
(0.0169489 -9.10286e-06 0)
(0.0202616 -3.09403e-05 0)
(0.0204211 -5.23549e-05 0)
(0.0204217 -7.34963e-05 0)
(0.0169696 -9.79744e-06 0)
(0.020284 -3.32968e-05 0)
(0.0204431 -5.63366e-05 0)
(0.0204433 -7.908e-05 0)
(0.0169919 -1.05566e-05 0)
(0.0203082 -3.58714e-05 0)
(0.0204669 -6.06867e-05 0)
(0.0204666 -8.51792e-05 0)
(0.017016 -1.13858e-05 0)
(0.0203343 -3.86822e-05 0)
(0.0204925 -6.54349e-05 0)
(0.0204917 -9.18363e-05 0)
(0.0170419 -1.22909e-05 0)
(0.0203624 -4.17485e-05 0)
(0.0205201 -7.06147e-05 0)
(0.0205187 -9.90969e-05 0)
(0.0170699 -1.3279e-05 0)
(0.0203928 -4.50927e-05 0)
(0.0205499 -7.62618e-05 0)
(0.0205479 -0.000107012 0)
(0.0171001 -1.43572e-05 0)
(0.0204256 -4.87383e-05 0)
(0.020582 -8.24167e-05 0)
(0.0205794 -0.000115637 0)
(0.0171329 -1.5533e-05 0)
(0.020461 -5.2711e-05 0)
(0.0206168 -8.91226e-05 0)
(0.0206135 -0.000125033 0)
(0.0171683 -1.68156e-05 0)
(0.0204993 -5.70402e-05 0)
(0.0206544 -9.64279e-05 0)
(0.0206503 -0.000135267 0)
(0.0172066 -1.82138e-05 0)
(0.0205408 -6.17568e-05 0)
(0.0206951 -0.000104387 0)
(0.0206901 -0.000146414 0)
(0.0172481 -1.97391e-05 0)
(0.0205857 -6.68967e-05 0)
(0.0207391 -0.000113056 0)
(0.0207332 -0.000158554 0)
(0.0172931 -2.1403e-05 0)
(0.0206344 -7.24981e-05 0)
(0.0207868 -0.000122501 0)
(0.0207799 -0.000171778 0)
(0.0173418 -2.32186e-05 0)
(0.0206871 -7.86038e-05 0)
(0.0208384 -0.000132793 0)
(0.0208304 -0.000186184 0)
(0.0173947 -2.52003e-05 0)
(0.0207442 -8.52606e-05 0)
(0.0208944 -0.000144011 0)
(0.0208852 -0.000201882 0)
(0.0174521 -2.7364e-05 0)
(0.0208062 -9.2521e-05 0)
(0.0209551 -0.000156241 0)
(0.0209446 -0.000218992 0)
(0.0175144 -2.97275e-05 0)
(0.0208734 -0.000100442 0)
(0.0210209 -0.00016958 0)
(0.021009 -0.000237648 0)
(0.0175821 -3.2311e-05 0)
(0.0209464 -0.000109089 0)
(0.0210924 -0.000184133 0)
(0.0210789 -0.000257998 0)
(0.0176556 -3.5136e-05 0)
(0.0210256 -0.000118533 0)
(0.0211699 -0.000200021 0)
(0.0211547 -0.000280205 0)
(0.0177355 -3.82274e-05 0)
(0.0211116 -0.000128853 0)
(0.0212541 -0.000217375 0)
(0.021237 -0.000304453 0)
(0.0178224 -4.1613e-05 0)
(0.0212051 -0.000140139 0)
(0.0213456 -0.000236343 0)
(0.0213264 -0.000330944 0)
(0.017917 -4.53243e-05 0)
(0.0213068 -0.00015249 0)
(0.021445 -0.000257088 0)
(0.0214235 -0.000359905 0)
(0.01802 -4.93964e-05 0)
(0.0214173 -0.000166018 0)
(0.0215531 -0.000279794 0)
(0.0215291 -0.00039159 0)
(0.0181322 -5.38694e-05 0)
(0.0215376 -0.000180847 0)
(0.0216707 -0.000304667 0)
(0.0216438 -0.000426283 0)
(0.0182545 -5.87874e-05 0)
(0.0216686 -0.000197119 0)
(0.0217987 -0.00033194 0)
(0.0217687 -0.000464303 0)
(0.0183879 -6.42008e-05 0)
(0.0218113 -0.000214991 0)
(0.021938 -0.000361872 0)
(0.0219046 -0.000506007 0)
(0.0185336 -7.01671e-05 0)
(0.0219668 -0.000234645 0)
(0.0220898 -0.00039476 0)
(0.0220526 -0.000551801 0)
(0.0186926 -7.67525e-05 0)
(0.0221365 -0.000256284 0)
(0.0222553 -0.000430939 0)
(0.0222138 -0.000602144 0)
(0.0188665 -8.4032e-05 0)
(0.0223216 -0.000280142 0)
(0.0224358 -0.000470787 0)
(0.0223896 -0.000657554 0)
(0.0190567 -9.20925e-05 0)
(0.0225239 -0.000306485 0)
(0.0226329 -0.00051474 0)
(0.0225813 -0.000718623 0)
(0.019265 -0.000101034 0)
(0.0227449 -0.000335618 0)
(0.0228482 -0.000563292 0)
(0.0227906 -0.000786028 0)
(0.0194934 -0.000110971 0)
(0.0229868 -0.000367892 0)
(0.0230835 -0.000617012 0)
(0.0230193 -0.000860541 0)
(0.019744 -0.000122038 0)
(0.0232516 -0.000403711 0)
(0.0233411 -0.000676555 0)
(0.0232693 -0.000943051 0)
(0.0200194 -0.00013439 0)
(0.0235419 -0.000443546 0)
(0.0236232 -0.000742677 0)
(0.0235429 -0.00103458 0)
(0.0203224 -0.000148209 0)
(0.0238606 -0.000487941 0)
(0.0239325 -0.000816255 0)
(0.0238425 -0.00113633 0)
(0.0206562 -0.000163709 0)
(0.0242106 -0.00053754 0)
(0.0242719 -0.00089831 0)
(0.024171 -0.00124967 0)
(0.0210245 -0.000181144 0)
(0.0245958 -0.000593092 0)
(0.024645 -0.000990043 0)
(0.0245316 -0.00137622 0)
(0.0214316 -0.000200817 0)
(0.0250201 -0.000655472 0)
(0.0250556 -0.00109287 0)
(0.0249278 -0.00151788 0)
(0.0218823 -0.000223089 0)
(0.0254884 -0.000725728 0)
(0.0255081 -0.00120848 0)
(0.0253637 -0.00167687 0)
(0.0223824 -0.000248392 0)
(0.026006 -0.000805105 0)
(0.0260075 -0.00133884 0)
(0.025844 -0.00185587 0)
(0.0229384 -0.000277247 0)
(0.0265792 -0.000895102 0)
(0.0265597 -0.00148635 0)
(0.0263741 -0.00205802 0)
(0.0235579 -0.000310287 0)
(0.0272153 -0.000997523 0)
(0.0271715 -0.00165387 0)
(0.02696 -0.00228713 0)
(0.0242502 -0.000348286 0)
(0.0279229 -0.00111456 0)
(0.0278507 -0.00184487 0)
(0.0276088 -0.00254778 0)
(0.0250259 -0.000392192 0)
(0.0287118 -0.0012489 0)
(0.0286064 -0.0020636 0)
(0.0283286 -0.00284554 0)
(0.0258977 -0.000443202 0)
(0.029594 -0.00140386 0)
(0.0294493 -0.00231527 0)
(0.0291288 -0.00318724 0)
(0.0268808 -0.000502723 0)
(0.0305835 -0.00158348 0)
(0.0303923 -0.00260637 0)
(0.0300207 -0.00358132 0)
(0.0279939 -0.000572807 0)
(0.0316971 -0.00179314 0)
(0.0314503 -0.00294496 0)
(0.031017 -0.00403827 0)
(0.029259 -0.000655271 0)
(0.0329553 -0.00203896 0)
(0.0326415 -0.00334124 0)
(0.0321331 -0.00457128 0)
(0.0307041 -0.000754353 0)
(0.0343824 -0.00233042 0)
(0.0339877 -0.00380822 0)
(0.0333869 -0.00519707 0)
(0.0323624 -0.000871623 0)
(0.0360096 -0.00267633 0)
(0.0355154 -0.00436292 0)
(0.0347999 -0.00593701 0)
(0.0342776 -0.00101621 0)
(0.0378741 -0.00309442 0)
(0.0372571 -0.00502723 0)
(0.0363976 -0.00681895 0)
(0.0365027 -0.00118956 0)
(0.0400243 -0.00359912 0)
(0.0392529 -0.0058307 0)
(0.0382103 -0.00787907 0)
(0.0391078 -0.00140756 0)
(0.0425206 -0.00422185 0)
(0.041553 -0.00681242 0)
(0.0402746 -0.00916586 0)
(0.0421821 -0.00167636 0)
(0.0454419 -0.00499251 0)
(0.0442205 -0.00802658 0)
(0.0426338 -0.0107441 0)
(0.0458478 -0.00202095 0)
(0.0488912 -0.00596708 0)
(0.0473355 -0.00954764 0)
(0.0453394 -0.0127025 0)
(0.050259 -0.0024611 0)
(0.0530062 -0.00721203 0)
(0.0510016 -0.0114819 0)
(0.048452 -0.0151635 0)
(0.0556594 -0.003039 0)
(0.0579742 -0.00883476 0)
(0.0553495 -0.0139815 0)
(0.0520403 -0.0183003 0)
(0.0622842 -0.00381396 0)
(0.0640516 -0.0109988 0)
(0.0605658 -0.0172713 0)
(0.0561835 -0.0223575 0)
(0.0708285 -0.00485519 0)
(0.0716164 -0.0139034 0)
(0.0668449 -0.0216864 0)
(0.0609463 -0.0277035 0)
(0.0810524 -0.00632385 0)
(0.0811258 -0.0180181 0)
(0.0746562 -0.0277439 0)
(0.0664487 -0.0348446 0)
(0.0966366 -0.00844706 0)
(0.0936702 -0.0236314 0)
(0.0839931 -0.0362274 0)
(0.0724898 -0.0447135 0)
(0.110565 -0.0109253 0)
(0.108802 -0.0316303 0)
(0.0971243 -0.0483809 0)
(0.0800745 -0.0582898 0)
(0.146628 -0.0165632 0)
(0.134591 -0.0448247 0)
(0.111491 -0.0665131 0)
(0.0851161 -0.0789721 0)
(0.158 -0.0174483 0)
(0.152035 -0.0531512 0)
(0.135412 -0.0885251 0)
(0.104791 -0.106917 0)
(0.247012 -0.0342894 0)
(0.226102 -0.0987095 0)
(0.176902 -0.149229 0)
(0.102012 -0.169002 0)
(0.00691796 -0.00272388 0)
(0.0143996 -0.00670142 0)
(0.025188 -0.010128 0)
(0.0377882 -0.0122147 0)
(0.050181 -0.0115907 0)
(0.0609857 -0.00750017 0)
(0.0710462 0.000778124 0)
(0.0818241 0.0146563 0)
(0.088096 0.0305153 0)
(0.0861148 0.0416957 0)
(0.0781888 0.0473343 0)
(0.0676843 0.0460183 0)
(0.0574428 0.0397203 0)
(0.049499 0.032456 0)
(0.0436937 0.0263623 0)
(0.0390206 0.0214959 0)
(0.0349833 0.017562 0)
(0.0314115 0.01441 0)
(0.0282978 0.0119511 0)
(0.0256601 0.0100517 0)
(0.0234629 0.00855686 0)
(0.0216351 0.00734299 0)
(0.0201041 0.00633179 0)
(0.0188104 0.00547622 0)
(0.0177083 0.00474492 0)
(0.0167639 0.00411391 0)
(0.015952 0.00356438 0)
(0.0152531 0.00308162 0)
(0.0146526 0.00265403 0)
(0.0141386 0.00227242 0)
(0.0137017 0.00192951 0)
(0.0133343 0.0016194 0)
(0.0130301 0.00133769 0)
(0.0127839 0.00108077 0)
(0.0125917 0.000844874 0)
(0.0124494 0.00062691 0)
(0.0123531 0.000425333 0)
(0.0122991 0.000239423 0)
(0.0122845 6.83783e-05 0)
(0.0123062 -8.85945e-05 0)
(0.0123613 -0.000231995 0)
(0.0124469 -0.000362152 0)
(0.0125602 -0.000479704 0)
(0.0126983 -0.000585049 0)
(0.0128585 -0.000678483 0)
(0.0130381 -0.000760308 0)
(0.0132344 -0.000830872 0)
(0.0134448 -0.000890578 0)
(0.0136669 -0.000939871 0)
(0.0138983 -0.000979248 0)
(0.0141367 -0.00100925 0)
(0.01438 -0.00103046 0)
(0.0146262 -0.00104352 0)
(0.0148736 -0.00104905 0)
(0.0151204 -0.00104775 0)
(0.0153651 -0.0010403 0)
(0.0156066 -0.0010274 0)
(0.0158437 -0.0010097 0)
(0.0160753 -0.000987877 0)
(0.0163006 -0.000962548 0)
(0.0165191 -0.000934309 0)
(0.0167301 -0.000903717 0)
(0.0169332 -0.00087129 0)
(0.0171281 -0.0008375 0)
(0.0173147 -0.000802776 0)
(0.0174928 -0.0007675 0)
(0.0176625 -0.000732011 0)
(0.0178237 -0.000696607 0)
(0.0179766 -0.000661543 0)
(0.0181213 -0.000627037 0)
(0.0182581 -0.000593271 0)
(0.0183871 -0.000560394 0)
(0.0185086 -0.000528528 0)
(0.0186229 -0.000497766 0)
(0.0187303 -0.000468178 0)
(0.018831 -0.000439813 0)
(0.0189255 -0.000412704 0)
(0.019014 -0.000386866 0)
(0.0190967 -0.000362302 0)
(0.0191741 -0.000339002 0)
(0.0192464 -0.00031695 0)
(0.0193139 -0.000296118 0)
(0.0193768 -0.000276476 0)
(0.0194355 -0.000257987 0)
(0.0194902 -0.00024061 0)
(0.0195412 -0.000224302 0)
(0.0195886 -0.00020902 0)
(0.0196328 -0.000194718 0)
(0.0196739 -0.000181349 0)
(0.0197122 -0.000168869 0)
(0.0197478 -0.000157231 0)
(0.0197809 -0.000146393 0)
(0.0198118 -0.00013631 0)
(0.0198405 -0.000126941 0)
(0.0198672 -0.000118246 0)
(0.0198921 -0.000110186 0)
(0.0199152 -0.000102726 0)
(0.0199368 -9.58304e-05 0)
(0.019957 -8.94663e-05 0)
(0.0199758 -8.36029e-05 0)
(0.0199934 -7.82114e-05 0)
(0.0200099 -7.32656e-05 0)
(0.0200253 -6.87393e-05 0)
(0.0200398 -6.46098e-05 0)
(0.0200534 -6.08553e-05 0)
(0.0200662 -5.74562e-05 0)
(0.0200784 -5.43942e-05 0)
(0.0200899 -5.16531e-05 0)
(0.0201008 -4.92184e-05 0)
(0.0201113 -4.70767e-05 0)
(0.0201213 -4.52167e-05 0)
(0.0201309 -4.36282e-05 0)
(0.0201402 -4.23029e-05 0)
(0.0201493 -4.12338e-05 0)
(0.0201581 -4.04154e-05 0)
(0.0201668 -3.98437e-05 0)
(0.0201754 -3.95163e-05 0)
(0.020184 -3.94319e-05 0)
(0.0201925 -3.95899e-05 0)
(0.0202011 -3.99928e-05 0)
(0.0202099 -4.06434e-05 0)
(0.0202187 -4.15465e-05 0)
(0.0202279 -4.27084e-05 0)
(0.0202373 -4.4137e-05 0)
(0.020247 -4.58417e-05 0)
(0.0202571 -4.78339e-05 0)
(0.0202677 -5.01272e-05 0)
(0.0202788 -5.27366e-05 0)
(0.0202905 -5.56796e-05 0)
(0.0203029 -5.89754e-05 0)
(0.020316 -6.2646e-05 0)
(0.02033 -6.67154e-05 0)
(0.0203449 -7.12112e-05 0)
(0.0203608 -7.61629e-05 0)
(0.0203778 -8.16041e-05 0)
(0.0203961 -8.75709e-05 0)
(0.0204157 -9.41039e-05 0)
(0.0204367 -0.000101247 0)
(0.0204594 -0.00010905 0)
(0.0204838 -0.000117565 0)
(0.0205101 -0.000126851 0)
(0.0205385 -0.000136973 0)
(0.0205692 -0.000148002 0)
(0.0206024 -0.000160015 0)
(0.0206382 -0.000173098 0)
(0.0206769 -0.000187345 0)
(0.0207189 -0.00020286 0)
(0.0207643 -0.000219756 0)
(0.0208134 -0.000238159 0)
(0.0208667 -0.000258208 0)
(0.0209244 -0.000280055 0)
(0.020987 -0.00030387 0)
(0.0210548 -0.00032984 0)
(0.0211284 -0.000358172 0)
(0.0212083 -0.000389097 0)
(0.021295 -0.000422871 0)
(0.0213892 -0.000459781 0)
(0.0214915 -0.000500146 0)
(0.0216027 -0.000544322 0)
(0.0217236 -0.000592711 0)
(0.0218551 -0.000645761 0)
(0.0219982 -0.00070398 0)
(0.022154 -0.000767943 0)
(0.0223238 -0.000838296 0)
(0.0225088 -0.000915779 0)
(0.0227105 -0.00100123 0)
(0.0229307 -0.00109561 0)
(0.0231711 -0.00120003 0)
(0.0234339 -0.00131574 0)
(0.0237212 -0.00144421 0)
(0.0240358 -0.00158715 0)
(0.0243805 -0.00174653 0)
(0.0247585 -0.00192468 0)
(0.0251735 -0.00212432 0)
(0.0256297 -0.00234867 0)
(0.0261318 -0.00260157 0)
(0.026685 -0.00288758 0)
(0.0272955 -0.0032122 0)
(0.0279702 -0.00358208 0)
(0.0287169 -0.00400531 0)
(0.0295448 -0.0044918 0)
(0.0304643 -0.00505382 0)
(0.0314872 -0.0057066 0)
(0.0326271 -0.00646929 0)
(0.0338996 -0.00736612 0)
(0.0353223 -0.0084281 0)
(0.0369149 -0.00969521 0)
(0.038699 -0.0112195 0)
(0.0406976 -0.0130697 0)
(0.042933 -0.0153369 0)
(0.0454245 -0.0181437 0)
(0.0481814 -0.0216567 0)
(0.0511918 -0.0261033 0)
(0.0544023 -0.031802 0)
(0.0576692 -0.0391862 0)
(0.0607062 -0.0489178 0)
(0.0628487 -0.06177 0)
(0.0625032 -0.0796956 0)
(0.0599648 -0.103575 0)
(0.0178555 -0.144748 0)
(0.00499289 -0.015613 0)
(0.0114633 -0.0201637 0)
(0.0205291 -0.0240469 0)
(0.0298492 -0.0264213 0)
(0.0395677 -0.025277 0)
(0.048906 -0.0197611 0)
(0.0556081 -0.0111942 0)
(0.0603929 0.00353383 0)
(0.0654463 0.0260237 0)
(0.066061 0.0446069 0)
(0.0622355 0.0534669 0)
(0.0560857 0.0543238 0)
(0.0489455 0.0479954 0)
(0.0428608 0.0388753 0)
(0.0384493 0.0312902 0)
(0.0347066 0.0255448 0)
(0.0313501 0.0210973 0)
(0.028394 0.0175227 0)
(0.0258449 0.0146246 0)
(0.0236864 0.0122957 0)
(0.0218695 0.0104261 0)
(0.0203349 0.00890697 0)
(0.0190286 0.00765293 0)
(0.0179079 0.00660287 0)
(0.0169407 0.00571227 0)
(0.016103 0.00494789 0)
(0.0153766 0.00428451 0)
(0.0147471 0.00370288 0)
(0.0142034 0.00318819 0)
(0.0137365 0.00272882 0)
(0.0133391 0.00231569 0)
(0.0130053 0.00194164 0)
(0.01273 0.00160108 0)
(0.0125092 0.0012895 0)
(0.0123395 0.00100279 0)
(0.0122173 0.000737779 0)
(0.0121392 0.000492785 0)
(0.0121022 0.000266486 0)
(0.0121035 5.78988e-05 0)
(0.0121404 -0.000133682 0)
(0.01221 -0.000308822 0)
(0.0123098 -0.000467984 0)
(0.0124368 -0.000611675 0)
(0.0125884 -0.000740377 0)
(0.0127616 -0.000854413 0)
(0.0129539 -0.000954142 0)
(0.0131625 -0.00103998 0)
(0.0133848 -0.00111239 0)
(0.0136183 -0.00117193 0)
(0.0138604 -0.00121919 0)
(0.0141089 -0.00125486 0)
(0.0143617 -0.00127967 0)
(0.0146166 -0.0012944 0)
(0.0148719 -0.00129987 0)
(0.0151259 -0.00129694 0)
(0.0153772 -0.00128647 0)
(0.0156244 -0.00126933 0)
(0.0158663 -0.00124634 0)
(0.0161022 -0.00121834 0)
(0.0163311 -0.00118611 0)
(0.0165524 -0.00115038 0)
(0.0167657 -0.00111184 0)
(0.0169706 -0.00107114 0)
(0.0171668 -0.00102885 0)
(0.0173541 -0.000985506 0)
(0.0175327 -0.00094157 0)
(0.0177023 -0.000897458 0)
(0.0178633 -0.000853529 0)
(0.0180156 -0.000810093 0)
(0.0181596 -0.00076741 0)
(0.0182954 -0.0007257 0)
(0.0184233 -0.000685141 0)
(0.0185436 -0.000645874 0)
(0.0186567 -0.000608008 0)
(0.0187627 -0.000571625 0)
(0.0188621 -0.000536778 0)
(0.0189551 -0.000503503 0)
(0.0190421 -0.000471813 0)
(0.0191235 -0.000441707 0)
(0.0191994 -0.000413172 0)
(0.0192703 -0.00038618 0)
(0.0193365 -0.000360699 0)
(0.0193981 -0.000336686 0)
(0.0194555 -0.000314094 0)
(0.019509 -0.000292871 0)
(0.0195588 -0.000272964 0)
(0.0196051 -0.000254316 0)
(0.0196482 -0.000236871 0)
(0.0196883 -0.00022057 0)
(0.0197256 -0.000205358 0)
(0.0197603 -0.000191177 0)
(0.0197926 -0.000177973 0)
(0.0198226 -0.000165694 0)
(0.0198505 -0.000154287 0)
(0.0198765 -0.000143703 0)
(0.0199006 -0.000133894 0)
(0.0199232 -0.000124817 0)
(0.0199442 -0.000116427 0)
(0.0199637 -0.000108686 0)
(0.019982 -0.000101556 0)
(0.0199991 -9.49998e-05 0)
(0.0200151 -8.89862e-05 0)
(0.02003 -8.34836e-05 0)
(0.0200441 -7.84638e-05 0)
(0.0200573 -7.39003e-05 0)
(0.0200698 -6.97688e-05 0)
(0.0200815 -6.60477e-05 0)
(0.0200927 -6.27166e-05 0)
(0.0201033 -5.97578e-05 0)
(0.0201134 -5.71554e-05 0)
(0.0201231 -5.48949e-05 0)
(0.0201324 -5.29645e-05 0)
(0.0201415 -5.13538e-05 0)
(0.0201502 -5.00541e-05 0)
(0.0201588 -4.90588e-05 0)
(0.0201672 -4.83632e-05 0)
(0.0201755 -4.79638e-05 0)
(0.0201838 -4.78593e-05 0)
(0.0201921 -4.80499e-05 0)