/*--------------------------------*- C++ -*----------------------------------*\
  =========                 |
  \\      /  F ield         | OpenFOAM: The Open Source CFD Toolbox
   \\    /   O peration     | Website:  https://openfoam.org
    \\  /    A nd           | Version:  dev
     \\/     M anipulation  |
\*---------------------------------------------------------------------------*/
FoamFile
{
    version     2.0;
    format      ascii;
    class       surfaceScalarField;
    location    "3";
    object      phi;
}
// * * * * * * * * * * * * * * * * * * * * * * * * * * * * * * * * * * * * * //

dimensions      [1 0 -1 0 0 0 0];

internalField   nonuniform List<scalar> 
15760
(
2.05404e-05
0.00113808
3.89363e-05
0.00114022
9.59459e-05
0.0011016
0.00107697
0.00017757
6.11181e-05
0.00107696
0.000126149
0.00107519
0.000203402
0.00102434
0.000984586
0.000295791
9.05383e-05
0.000986424
0.000189873
0.000975853
0.000297758
0.00091646
0.000844068
0.000438279
0.000112756
0.000873669
0.000230446
0.000858164
0.00035408
0.000792827
0.000701568
0.000496583
0.00012222
0.000751449
0.000238908
0.000741477
0.000356044
0.000675691
0.000581283
0.000476331
0.000113148
0.0006383
0.000216653
0.000637972
0.000312515
0.000579828
0.000497941
0.000395858
9.13164e-05
0.000546984
0.000176689
0.000552599
0.000249611
0.000506906
0.000444275
0.000303277
6.86312e-05
0.000478352
0.000135838
0.000485392
0.00019104
0.000451704
0.000405767
0.000229548
5.17618e-05
0.00042659
0.00010358
0.000433574
0.000145991
0.000409293
0.000375407
0.000176351
3.99432e-05
0.000386647
7.98893e-05
0.000393628
0.000113123
0.00037606
0.000350754
0.000137776
3.13078e-05
0.000355339
6.23959e-05
0.000362539
8.88102e-05
0.000349645
0.000330542
0.000109022
2.47885e-05
0.000330551
4.92738e-05
0.000338054
7.0483e-05
0.000328436
0.000313839
8.7186e-05
1.97888e-05
0.000310762
3.92971e-05
0.000318546
5.64761e-05
0.000311257
0.000299964
7.03517e-05
1.5917e-05
0.000294845
3.16146e-05
0.000302848
4.56289e-05
0.000297243
0.000288402
5.71909e-05
1.28922e-05
0.000281953
2.56264e-05
0.000290114
3.71237e-05
0.000285746
0.000278748
4.67776e-05
1.05061e-05
0.000271447
2.09055e-05
0.000279714
3.03814e-05
0.00027627
0.000270676
3.84532e-05
8.60643e-06
0.00026284
1.7145e-05
0.000271176
2.49835e-05
0.000268431
0.000263921
3.17389e-05
7.08093e-06
0.000255759
1.41214e-05
0.000264135
2.0624e-05
0.000261929
0.000258264
2.62806e-05
5.84614e-06
0.000249913
1.16706e-05
0.000258311
1.7076e-05
0.000256523
0.000253526
2.18136e-05
4.83955e-06
0.000245074
9.66978e-06
0.000253481
1.41694e-05
0.000252024
0.000249559
1.81364e-05
4.01408e-06
0.00024106
8.02649e-06
0.000249468
1.17749e-05
0.000248275
0.00024624
1.50948e-05
3.33324e-06
0.000237726
6.66953e-06
0.000246132
9.79265e-06
0.000245152
0.000243464
1.25683e-05
2.76904e-06
0.000234957
5.54415e-06
0.000243357
8.14526e-06
0.000242551
0.000241146
1.04627e-05
2.30002e-06
0.000232657
4.60772e-06
0.000241049
6.77207e-06
0.000240387
0.000239215
8.70345e-06
1.909e-06
0.000230748
3.82622e-06
0.000239132
5.6244e-06
0.000238588
0.000237609
7.23018e-06
1.58223e-06
0.000229166
3.17257e-06
0.000237542
4.66353e-06
0.000237097
0.000236278
5.99492e-06
1.30866e-06
0.000227857
2.62487e-06
0.000236226
3.85773e-06
0.000235865
0.000235178
4.95771e-06
1.07933e-06
0.000226778
2.16554e-06
0.000235139
3.18167e-06
0.000234848
0.000234273
4.08675e-06
8.87062e-07
0.000225891
1.78011e-06
0.000234246
2.61411e-06
0.000234015
0.000233532
3.35504e-06
7.25782e-07
0.000225165
1.45673e-06
0.000233515
2.1378e-06
0.000233333
0.000232929
2.74077e-06
5.90614e-07
0.000224575
1.18565e-06
0.00023292
1.73839e-06
0.000232781
0.000232442
2.22533e-06
4.7739e-07
0.000224097
9.58314e-07
0.000232439
1.40354e-06
0.000232335
0.000232052
1.79333e-06
3.82773e-07
0.000223714
7.6826e-07
0.000232054
1.12348e-06
0.00023198
0.000231744
1.43188e-06
3.03505e-07
0.000223411
6.09135e-07
0.000231748
8.89284e-07
0.0002317
0.000231503
1.12995e-06
2.37624e-07
0.000223173
4.7671e-07
0.000231509
6.94321e-07
0.000231482
0.000231319
8.78407e-07
1.82722e-07
0.000222991
3.66512e-07
0.000231325
5.32117e-07
0.000231317
0.000231181
6.69615e-07
1.37275e-07
0.000222853
2.75323e-07
0.000231187
3.97871e-07
0.000231194
0.000231083
4.96725e-07
9.98266e-08
0.000222753
1.99972e-07
0.000231087
2.87063e-07
0.000231107
0.000231016
3.54023e-07
6.88937e-08
0.000222685
1.37893e-07
0.000231018
1.95965e-07
0.000231049
0.000230974
2.37149e-07
4.37198e-08
0.000222641
8.72383e-08
0.000230975
1.21627e-07
0.000231015
0.000230954
1.41842e-07
2.32599e-08
0.000222618
4.60668e-08
0.000230952
6.11918e-08
0.000231
0.000230951
6.44723e-08
6.61239e-09
0.000222611
1.29657e-08
0.000230946
1.2608e-08
0.000231
0.000230961
2.47484e-09
-6.55288e-09
0.000222617
-1.33946e-08
0.000230952
-2.59365e-08
0.000231013
0.000230982
-4.67338e-08
-1.68025e-08
0.000222634
-3.43943e-08
0.00023097
-5.63484e-08
0.000231035
0.000231011
-8.54723e-08
-2.48649e-08
0.000222659
-5.06993e-08
0.000230996
-7.99637e-08
0.000231064
0.000231046
-1.15248e-07
-3.10728e-08
0.00022269
-6.29127e-08
0.000231028
-9.78817e-08
0.000231099
0.000231086
-1.37576e-07
-3.56875e-08
0.000222726
-7.19986e-08
0.000231064
-1.11121e-07
0.000231138
0.000231129
-1.53956e-07
-3.89261e-08
0.000222765
-7.85469e-08
0.000231104
-1.20416e-07
0.00023118
0.000231174
-1.65406e-07
-4.10248e-08
0.000222806
-8.28996e-08
0.000231145
-1.26457e-07
0.000231223
0.00023122
-1.72698e-07
-4.22817e-08
0.000222848
-8.54658e-08
0.000231189
-1.29965e-07
0.000231268
0.000231267
-1.76635e-07
-4.28604e-08
0.000222891
-8.66127e-08
0.000231232
-1.31422e-07
0.000231313
0.000231313
-1.77926e-07
-4.28649e-08
0.000222934
-8.65903e-08
0.000231276
-1.31179e-07
0.000231357
0.000231359
-1.77081e-07
-4.2419e-08
0.000222976
-8.56431e-08
0.000231319
-1.29594e-07
0.000231401
0.000231404
-1.7455e-07
-4.1619e-08
0.000223018
-8.40186e-08
0.000231362
-1.27001e-07
0.000231444
0.000231448
-1.70737e-07
-4.05429e-08
0.000223058
-8.18757e-08
0.000231403
-1.23619e-07
0.000231486
0.00023149
-1.65939e-07
-3.9247e-08
0.000223098
-7.93181e-08
0.000231443
-1.19644e-07
0.000231526
0.000231531
-1.60404e-07
-3.78141e-08
0.000223135
-7.6458e-08
0.000231482
-1.15242e-07
0.000231565
0.00023157
-1.54348e-07
-3.62984e-08
0.000223172
-7.33945e-08
0.000231519
-1.10581e-07
0.000231602
0.000231607
-1.47958e-07
-3.47221e-08
0.000223206
-7.02128e-08
0.000231554
-1.05769e-07
0.000231638
0.000231643
-1.41383e-07
-3.31163e-08
0.000223239
-6.69759e-08
0.000231588
-1.00867e-07
0.000231672
0.000231677
-1.34729e-07
-3.14964e-08
0.000223271
-6.37343e-08
0.00023162
-9.59411e-08
0.000231704
0.000231709
-1.28092e-07
-2.98961e-08
0.000223301
-6.052e-08
0.000231651
-9.1072e-08
0.000231734
0.000231739
-1.21548e-07
-2.8322e-08
0.000223329
-5.737e-08
0.00023168
-8.6319e-08
0.000231763
0.000231768
-1.15145e-07
-2.6788e-08
0.000223356
-5.43094e-08
0.000231708
-8.17027e-08
0.000231791
0.000231796
-1.08918e-07
-2.53057e-08
0.000223381
-5.13495e-08
0.000231734
-7.7235e-08
0.000231817
0.000231821
-1.02916e-07
-2.38918e-08
0.000223405
-4.84918e-08
0.000231758
-7.29504e-08
0.000231841
0.000231845
-9.71753e-08
-2.25428e-08
0.000223428
-4.57641e-08
0.000231781
-6.88787e-08
0.000231864
0.000231868
-9.1709e-08
-2.12536e-08
0.000223449
-4.31863e-08
0.000231803
-6.49976e-08
0.000231886
0.00023189
-8.6523e-08
-2.00279e-08
0.000223469
-4.07541e-08
0.000231824
-6.13162e-08
0.000231907
0.00023191
-8.16201e-08
-1.88797e-08
0.000223488
-3.84494e-08
0.000231844
-5.78469e-08
0.000231926
0.000231929
-7.70177e-08
-1.78095e-08
0.000223506
-3.62913e-08
0.000231862
-5.46125e-08
0.000231944
0.000231947
-7.27142e-08
-1.68008e-08
0.000223522
-3.42872e-08
0.00023188
-5.16017e-08
0.000231962
0.000231964
-6.86981e-08
-1.58711e-08
0.000223538
-3.24224e-08
0.000231896
-4.87983e-08
0.000231978
0.000231981
-6.49529e-08
-1.50173e-08
0.000223553
-3.06867e-08
0.000231912
-4.61918e-08
0.000231994
0.000231996
-6.14867e-08
-1.42294e-08
0.000223567
-2.90861e-08
0.000231927
-4.37993e-08
0.000232008
0.00023201
-5.83047e-08
-1.35068e-08
0.000223581
-2.7619e-08
0.000231941
-4.16233e-08
0.000232022
0.000232024
-5.53945e-08
-1.28356e-08
0.000223594
-2.62964e-08
0.000231954
-3.96362e-08
0.000232036
0.000232037
-5.27436e-08
-1.22222e-08
0.000223606
-2.50978e-08
0.000231967
-3.78313e-08
0.000232048
0.00023205
-5.03373e-08
-1.168e-08
0.000223618
-2.40174e-08
0.00023198
-3.62074e-08
0.00023206
0.000232062
-4.81836e-08
-1.12111e-08
0.000223629
-2.30613e-08
0.000231991
-3.4771e-08
0.000232072
0.000232073
-4.62895e-08
-1.08019e-08
0.00022364
-2.22259e-08
0.000232003
-3.35221e-08
0.000232083
0.000232084
-4.46341e-08
-1.04352e-08
0.00022365
-2.15075e-08
0.000232014
-3.24537e-08
0.000232094
0.000232095
-4.32054e-08
-1.01218e-08
0.00022366
-2.09075e-08
0.000232025
-3.15432e-08
0.000232105
0.000232106
-4.20015e-08
-9.88742e-09
0.00022367
-2.04079e-08
0.000232035
-3.08067e-08
0.000232115
0.000232116
-4.10226e-08
-9.7076e-09
0.00022368
-2.00285e-08
0.000232046
-3.02474e-08
0.000232126
0.000232126
-4.02815e-08
-9.57837e-09
0.000223689
-1.97687e-08
0.000232056
-2.98618e-08
0.000232136
0.000232136
-3.97647e-08
-9.4953e-09
0.000223699
-1.96201e-08
0.000232066
-2.96419e-08
0.000232146
0.000232146
-3.94703e-08
-9.4624e-09
0.000223708
-1.9583e-08
0.000232076
-2.95809e-08
0.000232156
0.000232155
-3.93898e-08
-9.49365e-09
0.000223718
-1.9654e-08
0.000232086
-2.96873e-08
0.000232166
0.000232165
-3.95392e-08
-9.58945e-09
0.000223727
-1.98417e-08
0.000232096
-2.99737e-08
0.000232176
0.000232175
-3.99124e-08
-9.73522e-09
0.000223737
-2.01442e-08
0.000232107
-3.04334e-08
0.000232186
0.000232185
-4.05257e-08
-9.93552e-09
0.000223747
-2.05657e-08
0.000232117
-3.1068e-08
0.000232197
0.000232196
-4.1367e-08
-1.01989e-08
0.000223757
-2.11082e-08
0.000232128
-3.18779e-08
0.000232208
0.000232206
-4.2451e-08
-1.05313e-08
0.000223768
-2.17775e-08
0.00023214
-3.28854e-08
0.000232219
0.000232217
-4.3792e-08
-1.09365e-08
0.000223779
-2.25808e-08
0.000232151
-3.4098e-08
0.00023223
0.000232228
-4.54028e-08
-1.14019e-08
0.00022379
-2.35208e-08
0.000232163
-3.55221e-08
0.000232242
0.00023224
-4.72864e-08
-1.19194e-08
0.000223802
-2.46092e-08
0.000232176
-3.71539e-08
0.000232255
0.000232252
-4.94555e-08
-1.25166e-08
0.000223814
-2.58431e-08
0.000232189
-3.90047e-08
0.000232268
0.000232265
-5.19171e-08
-1.32001e-08
0.000223828
-2.72385e-08
0.000232203
-4.1089e-08
0.000232282
0.000232279
-5.4688e-08
-1.39773e-08
0.000223842
-2.87937e-08
0.000232218
-4.34335e-08
0.000232296
0.000232293
-5.77963e-08
-1.48434e-08
0.000223856
-3.05289e-08
0.000232234
-4.60402e-08
0.000232312
0.000232309
-6.12636e-08
-1.57886e-08
0.000223872
-3.24582e-08
0.000232251
-4.89316e-08
0.000232328
0.000232325
-6.50989e-08
-1.68175e-08
0.000223889
-3.45829e-08
0.000232268
-5.21254e-08
0.000232346
0.000232342
-6.9335e-08
-1.79669e-08
0.000223907
-3.69266e-08
0.000232287
-5.56357e-08
0.000232365
0.00023236
-7.39989e-08
-1.92442e-08
0.000223926
-3.94932e-08
0.000232308
-5.9497e-08
0.000232385
0.00023238
-7.91201e-08
-2.06482e-08
0.000223947
-4.23108e-08
0.000232329
-6.37185e-08
0.000232406
0.000232401
-8.47368e-08
-2.21685e-08
0.000223969
-4.53954e-08
0.000232352
-6.83437e-08
0.000232429
0.000232423
-9.08588e-08
-2.38145e-08
0.000223993
-4.87482e-08
0.000232377
-7.33835e-08
0.000232454
0.000232448
-9.75534e-08
-2.56059e-08
0.000224018
-5.24114e-08
0.000232404
-7.88724e-08
0.00023248
0.000232474
-1.04853e-07
-2.7571e-08
0.000224046
-5.63957e-08
0.000232433
-8.48621e-08
0.000232508
0.000232501
-1.128e-07
-2.97258e-08
0.000224076
-6.07398e-08
0.000232464
-9.13838e-08
0.000232539
0.000232532
-1.21458e-07
-3.20688e-08
0.000224108
-6.54715e-08
0.000232497
-9.84763e-08
0.000232572
0.000232564
-1.30871e-07
-3.46086e-08
0.000224142
-7.06029e-08
0.000232533
-1.0618e-07
0.000232608
0.000232599
-1.41085e-07
-3.73433e-08
0.00022418
-7.61675e-08
0.000232572
-1.14537e-07
0.000232646
0.000232636
-1.52166e-07
-4.03008e-08
0.00022422
-8.22094e-08
0.000232614
-1.23593e-07
0.000232687
0.000232677
-1.64193e-07
-4.35201e-08
0.000224263
-8.87603e-08
0.000232659
-1.33419e-07
0.000232732
0.000232721
-1.77249e-07
-4.70382e-08
0.00022431
-9.58725e-08
0.000232708
-1.44087e-07
0.00023278
0.000232768
-1.91415e-07
-5.08674e-08
0.000224361
-1.03589e-07
0.000232761
-1.5567e-07
0.000232832
0.000232819
-2.06777e-07
-5.50128e-08
0.000224416
-1.1196e-07
0.000232818
-1.6823e-07
0.000232889
0.000232875
-2.23442e-07
-5.94891e-08
0.000224476
-1.21027e-07
0.000232879
-1.8183e-07
0.000232949
0.000232934
-2.41488e-07
-6.43148e-08
0.00022454
-1.30839e-07
0.000232946
-1.96546e-07
0.000233015
0.000232999
-2.61021e-07
-6.95391e-08
0.00022461
-1.41467e-07
0.000233018
-2.12501e-07
0.000233086
0.000233068
-2.82191e-07
-7.52224e-08
0.000224685
-1.52995e-07
0.000233096
-2.29786e-07
0.000233163
0.000233144
-3.05146e-07
-8.13942e-08
0.000224766
-1.65481e-07
0.00023318
-2.48522e-07
0.000233246
0.000233225
-3.30011e-07
-8.80774e-08
0.000224854
-1.79012e-07
0.000233271
-2.68824e-07
0.000233336
0.000233313
-3.56949e-07
-9.53111e-08
0.00022495
-1.93673e-07
0.000233369
-2.90819e-07
0.000233433
0.000233409
-3.86133e-07
-1.03143e-07
0.000225053
-2.09554e-07
0.000233475
-3.14635e-07
0.000233538
0.000233512
-4.17733e-07
-1.11617e-07
0.000225164
-2.26749e-07
0.00023359
-3.40423e-07
0.000233652
0.000233623
-4.51951e-07
-1.208e-07
0.000225285
-2.45372e-07
0.000233715
-3.68361e-07
0.000233775
0.000233744
-4.89021e-07
-1.30763e-07
0.000225416
-2.65552e-07
0.00023385
-3.98627e-07
0.000233908
0.000233875
-5.29187e-07
-1.41574e-07
0.000225557
-2.87415e-07
0.000233996
-4.31433e-07
0.000234052
0.000234016
-5.7272e-07
-1.53282e-07
0.000225711
-3.11114e-07
0.000234154
-4.66983e-07
0.000234208
0.000234169
-6.19881e-07
-1.65958e-07
0.000225877
-3.36793e-07
0.000234324
-5.05494e-07
0.000234376
0.000234334
-6.70972e-07
-1.79676e-07
0.000226056
-3.64611e-07
0.000234509
-5.47211e-07
0.000234559
0.000234513
-7.26319e-07
-1.94535e-07
0.000226251
-3.94748e-07
0.000234709
-5.92416e-07
0.000234757
0.000234707
-7.863e-07
-2.10649e-07
0.000226461
-4.27421e-07
0.000234926
-6.41426e-07
0.000234971
0.000234917
-8.5132e-07
-2.28141e-07
0.00022669
-4.62856e-07
0.000235161
-6.94567e-07
0.000235202
0.000235144
-9.21819e-07
-2.47118e-07
0.000226937
-5.01284e-07
0.000235415
-7.5219e-07
0.000235453
0.00023539
-9.98252e-07
-2.67695e-07
0.000227204
-5.42952e-07
0.00023569
-8.14675e-07
0.000235725
0.000235657
-1.08111e-06
-2.90001e-07
0.000227494
-5.88135e-07
0.000235989
-8.82424e-07
0.000236019
0.000235945
-1.17096e-06
-3.14191e-07
0.000227809
-6.37149e-07
0.000236311
-9.55916e-07
0.000236338
0.000236258
-1.26843e-06
-3.40444e-07
0.000228149
-6.90336e-07
0.000236661
-1.03566e-06
0.000236683
0.000236596
-1.3742e-06
-3.68954e-07
0.000228518
-7.48068e-07
0.00023704
-1.12223e-06
0.000237058
0.000236963
-1.48898e-06
-3.99907e-07
0.000228918
-8.10755e-07
0.000237451
-1.21619e-06
0.000237463
0.000237361
-1.61358e-06
-4.33523e-07
0.000229351
-8.7882e-07
0.000237897
-1.31823e-06
0.000237902
0.000237791
-1.74884e-06
-4.70026e-07
0.000229821
-9.52754e-07
0.000238379
-1.42905e-06
0.000238379
0.000238258
-1.89576e-06
-5.097e-07
0.000230331
-1.03309e-06
0.000238903
-1.54947e-06
0.000238895
0.000238764
-2.05538e-06
-5.52834e-07
0.000230884
-1.12043e-06
0.00023947
-1.68037e-06
0.000239455
0.000239312
-2.22887e-06
-5.99738e-07
0.000231484
-1.21542e-06
0.000240086
-1.82271e-06
0.000240062
0.000239907
-2.41749e-06
-6.50767e-07
0.000232134
-1.31876e-06
0.000240754
-1.97753e-06
0.000240721
0.000240552
-2.62263e-06
-7.06313e-07
0.000232841
-1.43122e-06
0.000241479
-2.14602e-06
0.000241436
0.000241252
-2.84584e-06
-7.66821e-07
0.000233607
-1.55369e-06
0.000242266
-2.32947e-06
0.000242212
0.000242011
-3.08886e-06
-8.32779e-07
0.00023444
-1.68714e-06
0.00024312
-2.52935e-06
0.000243054
0.000242836
-3.35358e-06
-9.04701e-07
0.000235345
-1.83263e-06
0.000244048
-2.74725e-06
0.000243969
0.00024373
-3.64209e-06
-9.83164e-07
0.000236328
-1.99136e-06
0.000245056
-2.98491e-06
0.000244962
0.000244702
-3.95671e-06
-1.06879e-06
0.000237397
-2.16461e-06
0.000246152
-3.24427e-06
0.000246042
0.000245758
-4.3e-06
-1.16235e-06
0.000238559
-2.35387e-06
0.000247344
-3.52756e-06
0.000247215
0.000246905
-4.67485e-06
-1.26465e-06
0.000239824
-2.56079e-06
0.00024864
-3.83721e-06
0.000248492
0.000248152
-5.08449e-06
-1.37662e-06
0.0002412
-2.78721e-06
0.00025005
-4.176e-06
0.000249881
0.000249509
-5.53255e-06
-1.49931e-06
0.0002427
-3.03525e-06
0.000251586
-4.54701e-06
0.000251392
0.000250985
-6.02306e-06
-1.63388e-06
0.000244334
-3.30722e-06
0.00025326
-4.9537e-06
0.000253039
0.000252592
-6.56052e-06
-1.78161e-06
0.000246115
-3.60574e-06
0.000255084
-5.39994e-06
0.000254833
0.000254342
-7.15006e-06
-1.94401e-06
0.000248059
-3.93378e-06
0.000257074
-5.89017e-06
0.000256789
0.000256249
-7.79745e-06
-2.12276e-06
0.000250182
-4.29475e-06
0.000259245
-6.42943e-06
0.000258924
0.000258329
-8.50928e-06
-2.3198e-06
0.000252502
-4.69251e-06
0.000261618
-7.02345e-06
0.000261255
0.000260599
-9.29298e-06
-2.53733e-06
0.000255039
-5.1315e-06
0.000264212
-7.67872e-06
0.000263802
0.000263077
-1.0157e-05
-2.77787e-06
0.000257817
-5.61676e-06
0.000267051
-8.40271e-06
0.000266588
0.000265785
-1.11111e-05
-3.04435e-06
0.000260861
-6.15413e-06
0.000270161
-9.20405e-06
0.000269638
0.000268748
-1.21664e-05
-3.34019e-06
0.000264201
-6.75038e-06
0.000273571
-1.00927e-05
0.00027298
0.000271991
-1.33358e-05
-3.66933e-06
0.000267871
-7.41339e-06
0.000277315
-1.10802e-05
0.000276647
0.000275545
-1.46343e-05
-4.03636e-06
0.000271907
-8.15229e-06
0.000281431
-1.218e-05
0.000280675
0.000279444
-1.6079e-05
-4.44665e-06
0.000276354
-8.97779e-06
0.000285962
-1.34077e-05
0.000285105
0.000283727
-1.76903e-05
-4.9066e-06
0.00028126
-9.90257e-06
0.000290958
-1.47818e-05
0.000289984
0.000288436
-1.94918e-05
-5.42383e-06
0.000286684
-1.09417e-05
0.000296476
-1.63244e-05
0.000295367
0.000293624
-2.15115e-05
-6.0074e-06
0.000292692
-1.21129e-05
0.000302582
-1.80613e-05
0.000301315
0.000299345
-2.37825e-05
-6.66815e-06
0.00029936
-1.34379e-05
0.000309351
-2.00236e-05
0.000307901
0.000305665
-2.63443e-05
-7.41925e-06
0.000306779
-1.49423e-05
0.000316874
-2.22489e-05
0.000315207
0.000312661
-2.92443e-05
-8.27681e-06
0.000315056
-1.66579e-05
0.000325256
-2.47825e-05
0.000323332
0.000320418
-3.25397e-05
-9.26065e-06
0.000324316
-1.86232e-05
0.000334618
-2.76799e-05
0.000332389
0.000329038
-3.62997e-05
-1.03952e-05
0.000334712
-2.0886e-05
0.000345109
-3.10091e-05
0.000342512
0.000338638
-4.06092e-05
-1.1711e-05
0.000346423
-2.35057e-05
0.000356904
-3.48548e-05
0.000353861
0.000349356
-4.55728e-05
-1.32469e-05
0.000359669
-2.65572e-05
0.000370214
-3.93228e-05
0.000366627
0.000361353
-5.13205e-05
-1.50521e-05
0.000374722
-3.01356e-05
0.000385297
-4.45466e-05
0.000381038
0.000374821
-5.80147e-05
-1.71906e-05
0.000391912
-3.43631e-05
0.00040247
-5.06967e-05
0.000397371
0.000389986
-6.58611e-05
-1.97456e-05
0.000411658
-3.93984e-05
0.000422123
-5.79928e-05
0.000415966
0.000407115
-7.51219e-05
-2.28276e-05
0.000434485
-4.54507e-05
0.000444746
-6.67214e-05
0.000437236
0.000426528
-8.61347e-05
-2.65849e-05
0.00046107
-5.27988e-05
0.00047096
-7.7261e-05
0.000461698
0.000448606
-9.93391e-05
-3.12199e-05
0.00049229
-6.18203e-05
0.00050156
-9.01175e-05
0.000489996
0.000473802
-0.000115314
-3.70132e-05
0.000529303
-7.30341e-05
0.000537581
-0.000105978
0.000522939
0.000502653
-0.000134828
-4.43603e-05
0.000573664
-8.71655e-05
0.000580386
-0.000125787
0.000561561
0.000535787
-0.000158921
-5.3833e-05
0.000627497
-0.000105251
0.000631804
-0.000150869
0.000607179
0.000573923
-0.000189006
-6.62427e-05
0.000693739
-0.000128768
0.000694329
-0.000183104
0.000661515
0.000617862
-0.000227043
-8.29255e-05
0.000776665
-0.000160009
0.000771413
-0.000225233
0.000726739
0.000668394
-0.000275765
-0.000105287
0.000881951
-0.000201973
0.0008681
-0.00028131
0.000806075
0.000726227
-0.000339143
-0.00013763
0.00101958
-0.00026058
0.000991049
-0.000357325
0.000902821
0.000791477
-0.000422575
-0.000180225
0.00119981
-0.000341467
0.00115229
-0.000463885
0.00102524
0.000863281
-0.000535688
-0.000240698
0.0014405
-0.000456355
0.00136795
-0.000612731
0.00118161
0.000938737
-0.000688187
-0.0003442
0.0017847
-0.000630873
0.00165462
-0.000841322
0.00139206
0.00101554
-0.000918129
-0.000397467
0.00218217
-0.000798691
0.00205585
-0.0011347
0.00172807
0.00110997
-0.00122913
-0.000760101
-0.0013931
-0.00177242
-0.00193975
0.000414058
-0.000236489
0.000475188
0.000234663
0.000447374
0.000466096
0.000412237
0.000531721
0.000388068
0.000500499
0.000375183
0.000408743
0.000363376
0.000315084
0.000349334
0.00024359
0.000334645
0.000191041
0.000320633
0.000151788
0.000307827
0.000121828
0.000296407
9.86064e-05
0.000286388
8.037e-05
0.000277697
6.58822e-05
0.000270215
5.42597e-05
0.00026381
4.48584e-05
0.00025835
3.71987e-05
0.000253712
3.09184e-05
0.000249785
2.57412e-05
0.000246468
2.14535e-05
0.000243674
1.78885e-05
0.000241327
1.49149e-05
0.000239362
1.24278e-05
0.000237722
1.03438e-05
0.000236358
8.59447e-06
0.000235228
7.125e-06
0.000234296
5.88932e-06
0.000233532
4.85055e-06
0.00023291
3.97712e-06
0.000232407
3.24353e-06
0.000232005
2.6278e-06
0.000231686
2.11176e-06
0.000231438
1.67999e-06
0.000231249
1.31974e-06
0.000231107
1.01952e-06
0.000231006
7.70606e-07
0.000230938
5.6482e-07
0.000230897
3.95288e-07
0.000230878
2.56561e-07
0.000230876
1.43563e-07
0.000230888
5.22717e-08
0.000230911
-2.05789e-08
0.000230943
-7.82221e-08
0.000230981
-1.23332e-07
0.000231023
-1.57867e-07
0.000231069
-1.8356e-07
0.000231117
-2.02029e-07
0.000231166
-2.14541e-07
0.000231216
-2.22201e-07
0.000231265
-2.2596e-07
0.000231314
-2.26594e-07
0.000231361
-2.24706e-07
0.000231408
-2.2084e-07
0.000231453
-2.15468e-07
0.000231496
-2.08975e-07
0.000231537
-2.01669e-07
0.000231576
-1.93769e-07
0.000231614
-1.85499e-07
0.000231649
-1.77049e-07
0.000231683
-1.68548e-07
0.000231715
-1.60104e-07
0.000231746
-1.51803e-07
0.000231774
-1.43716e-07
0.000231801
-1.35894e-07
0.000231827
-1.28367e-07
0.000231851
-1.2116e-07
0.000231873
-1.14291e-07
0.000231894
-1.07777e-07
0.000231914
-1.0163e-07
0.000231933
-9.58678e-08
0.000231951
-9.04755e-08
0.000231968
-8.54476e-08
0.000231984
-8.07852e-08
0.000231999
-7.64754e-08
0.000232013
-7.25112e-08
0.000232026
-6.88838e-08
0.000232039
-6.55741e-08
0.000232051
-6.2584e-08
0.000232063
-5.99129e-08
0.000232074
-5.75432e-08
0.000232085
-5.54817e-08
0.000232096
-5.36976e-08
0.000232106
-5.22005e-08
0.000232116
-5.09917e-08
0.000232126
-5.00649e-08
0.000232135
-4.94252e-08
0.000232145
-4.90531e-08
0.000232154
-4.8958e-08
0.000232164
-4.91354e-08
0.000232174
-4.96067e-08
0.000232184
-5.0364e-08
0.000232194
-5.14095e-08
0.000232204
-5.27576e-08
0.000232215
-5.44222e-08
0.000232226
-5.64209e-08
0.000232237
-5.87622e-08
0.000232249
-6.1449e-08
0.000232262
-6.4499e-08
0.000232275
-6.79366e-08
0.000232289
-7.17906e-08
0.000232304
-7.60857e-08
0.000232319
-8.08539e-08
0.000232336
-8.61161e-08
0.000232354
-9.19041e-08
0.000232373
-9.82527e-08
0.000232394
-1.05205e-07
0.000232416
-1.12814e-07
0.000232439
-1.21116e-07
0.000232465
-1.30168e-07
0.000232492
-1.40038e-07
0.000232521
-1.50772e-07
0.000232553
-1.62438e-07
0.000232587
-1.75101e-07
0.000232623
-1.88855e-07
0.000232663
-2.03776e-07
0.000232706
-2.19972e-07
0.000232752
-2.37542e-07
0.000232802
-2.56596e-07
0.000232855
-2.77259e-07
0.000232914
-2.99624e-07
0.000232976
-3.23859e-07
0.000233044
-3.50127e-07
0.000233118
-3.7859e-07
0.000233197
-4.09426e-07
0.000233283
-4.42832e-07
0.000233376
-4.79011e-07
0.000233476
-5.18193e-07
0.000233585
-5.60631e-07
0.000233703
-6.06596e-07
0.00023383
-6.56409e-07
0.000233968
-7.10376e-07
0.000234116
-7.68841e-07
0.000234278
-8.32174e-07
0.000234452
-9.00789e-07
0.000234641
-9.75148e-07
0.000234845
-1.05576e-06
0.000235067
-1.14314e-06
0.000235306
-1.23786e-06
0.000235566
-1.34054e-06
0.000235847
-1.45189e-06
0.000236151
-1.57268e-06
0.000236481
-1.70372e-06
0.000236837
-1.84593e-06
0.000237224
-2.00027e-06
0.000237643
-2.16781e-06
0.000238097
-2.34977e-06
0.000238589
-2.54744e-06
0.000239123
-2.76224e-06
0.000239701
-2.99573e-06
0.000240328
-3.24963e-06
0.000241008
-3.52586e-06
0.000241745
-3.82655e-06
0.000242546
-4.15402e-06
0.000243415
-4.51082e-06
0.000244358
-4.89979e-06
0.000245382
-5.3241e-06
0.000246494
-5.78729e-06
0.000247703
-6.29332e-06
0.000249017
-6.84659e-06
0.000250446
-7.45203e-06
0.000252001
-8.11515e-06
0.000253693
-8.84217e-06
0.000255536
-9.64017e-06
0.000257543
-1.05171e-05
0.000259732
-1.14819e-05
0.00026212
-1.25449e-05
0.000264727
-1.37178e-05
0.000267575
-1.50142e-05
0.000270688
-1.64494e-05
0.000274095
-1.80413e-05
0.000277827
-1.98107e-05
0.000281918
-2.17815e-05
0.000286408
-2.39821e-05
0.000291342
-2.64454e-05
0.00029677
-2.92105e-05
0.00030275
-3.23238e-05
0.000309346
-3.58406e-05
0.000316633
-3.98271e-05
0.000324697
-4.43633e-05
0.000333634
-4.95464e-05
0.000343557
-5.54953e-05
0.000354592
-6.2356e-05
0.000366887
-7.03097e-05
0.000380609
-7.95828e-05
0.000395947
-9.04601e-05
0.000413115
-0.000103303
0.000432348
-0.000118572
0.000453899
-0.000136864
0.000478023
-0.000158952
0.000504951
-0.000185849
0.000534835
-0.00021889
0.000567642
-0.000259849
0.000602968
-0.000311092
0.00063962
-0.000375795
0.000675202
-0.000458157
0.000703429
-0.000563916
0.000715024
-0.000699782
0.000672958
-0.000876063
0.000534515
-0.00109069
-0.00140523
-5.95683e-05
-0.000176921
-1.3029e-05
0.000188124
6.66348e-05
0.000386433
0.000147202
0.000451155
0.0002185
0.000429201
0.000265091
0.000362153
0.000287038
0.000293136
0.00029424
0.000236388
0.000293794
0.000191487
0.000289656
0.000155926
0.000283909
0.000127575
0.000277674
0.000104841
0.000271543
8.65008e-05
0.000265814
7.16112e-05
0.000260621
5.94535e-05
0.000256005
4.94744e-05
0.000251959
4.12445e-05
0.000248449
3.44278e-05
0.00024543
2.87606e-05
0.00024285
2.40337e-05
0.000240658
2.00802e-05
0.000238806
1.67665e-05
0.000237251
1.39837e-05
0.00023595
1.16442e-05
0.00023487
9.67515e-06
0.000233977
8.0176e-06
0.000233245
6.62162e-06
0.000232649
5.44661e-06
0.000232168
4.45789e-06
0.000231784
3.62692e-06
0.000231483
2.92946e-06
0.00023125
2.34487e-06
0.000231074
1.85603e-06
0.000230945
1.44828e-06
0.000230856
1.1091e-06
0.000230798
8.28177e-07
0.000230767
5.9603e-07
0.000230757
4.05349e-07
0.000230763
2.49859e-07
0.000230783
1.23577e-07
0.000230814
2.18249e-08
0.000230852
-5.91787e-08
0.000230897
-1.22809e-07
0.000230946
-1.7202e-07
0.000230997
-2.09288e-07
0.00023105
-2.36709e-07
0.000231104
-2.55984e-07
0.000231158
-2.68584e-07
0.000231212
-2.75741e-07
0.000231264
-2.7852e-07
0.000231316
-2.77786e-07
0.000231365
-2.74284e-07
0.000231413
-2.68631e-07
0.000231459
-2.61346e-07
0.000231503
-2.52846e-07
0.000231545
-2.43479e-07
0.000231584
-2.33527e-07
0.000231622
-2.23244e-07
0.000231658
-2.12817e-07
0.000231692
-2.02362e-07
0.000231723
-1.92007e-07
0.000231754
-1.81862e-07
0.000231782
-1.72013e-07
0.000231808
-1.62515e-07
0.000231833
-1.53402e-07
0.000231857
-1.44703e-07
0.000231879
-1.36451e-07
0.0002319
-1.2864e-07
0.00023192
-1.2127e-07
0.000231938
-1.14342e-07
0.000231956
-1.07869e-07
0.000231972
-1.01847e-07
0.000231987
-9.62596e-08
0.000232002
-9.10926e-08
0.000232016
-8.63456e-08
0.000232029
-8.20068e-08
0.000232041
-7.806e-08
0.000232053
-7.44961e-08
0.000232065
-7.13011e-08
0.000232076
-6.84836e-08
0.000232086
-6.60147e-08
0.000232096
-6.38889e-08
0.000232106
-6.21068e-08
0.000232116
-6.06618e-08
0.000232126
-5.95573e-08
0.000232135
-5.87841e-08
0.000232144
-5.83403e-08
0.000232153
-5.82202e-08
0.000232163
-5.84343e-08
0.000232172
-5.89918e-08
0.000232182
-5.98884e-08
0.000232191
-6.11337e-08
0.000232201
-6.27353e-08
0.000232212
-6.47167e-08
0.000232222
-6.70877e-08
0.000232233
-6.98636e-08
0.000232245
-7.30547e-08
0.000232257
-7.6677e-08
0.00023227
-8.07565e-08
0.000232284
-8.53323e-08
0.000232298
-9.04386e-08
0.000232313
-9.61033e-08
0.000232329
-1.02355e-07
0.000232347
-1.09227e-07
0.000232365
-1.16768e-07
0.000232385
-1.25031e-07
0.000232406
-1.34062e-07
0.000232429
-1.43927e-07
0.000232454
-1.54686e-07
0.00023248
-1.66396e-07
0.000232508
-1.79137e-07
0.000232539
-1.92988e-07
0.000232572
-2.0803e-07
0.000232607
-2.24367e-07
0.000232646
-2.42089e-07
0.000232687
-2.61324e-07
0.000232732
-2.82187e-07
0.00023278
-3.04809e-07
0.000232832
-3.29343e-07
0.000232888
-3.559e-07
0.000232949
-3.84671e-07
0.000233015
-4.15861e-07
0.000233086
-4.49659e-07
0.000233163
-4.86272e-07
0.000233246
-5.2593e-07
0.000233336
-5.68881e-07
0.000233433
-6.15391e-07
0.000233538
-6.65769e-07
0.000233652
-7.20348e-07
0.000233775
-7.79477e-07
0.000233908
-8.43535e-07
0.000234052
-9.1292e-07
0.000234208
-9.8808e-07
0.000234377
-1.06952e-06
0.000234559
-1.15777e-06
0.000234757
-1.25343e-06
0.000234971
-1.3571e-06
0.000235203
-1.46948e-06
0.000235453
-1.5913e-06
0.000235725
-1.72339e-06
0.000236019
-1.86667e-06
0.000236337
-2.0221e-06
0.000236682
-2.19074e-06
0.000237055
-2.37374e-06
0.00023746
-2.57238e-06
0.000237898
-2.78807e-06
0.000238373
-3.02234e-06
0.000238888
-3.27688e-06
0.000239446
-3.55351e-06
0.00024005
-3.85427e-06
0.000240706
-4.18143e-06
0.000241417
-4.53746e-06
0.000242188
-4.92508e-06
0.000243024
-5.3473e-06
0.000243932
-5.80744e-06
0.000244917
-6.30924e-06
0.000245987
-6.85682e-06
0.000247148
-7.45482e-06
0.00024841
-8.10836e-06
0.000249781
-8.82317e-06
0.000251272
-9.60569e-06
0.000252892
-1.04631e-05
0.000254656
-1.14037e-05
0.000256576
-1.24366e-05
0.000258666
-1.35722e-05
0.000260943
-1.48224e-05
0.000263426
-1.62006e-05
0.000266134
-1.77224e-05
0.00026909
-1.94054e-05
0.000272319
-2.12699e-05
0.000275848
-2.33396e-05
0.000279708
-2.56416e-05
0.000283934
-2.82077e-05
0.000288563
-3.10752e-05
0.00029364
-3.42875e-05
0.000299213
-3.78962e-05
0.000305335
-4.19624e-05
0.000312066
-4.65587e-05
0.000319475
-5.17723e-05
0.000327637
-5.7708e-05
0.000336634
-6.44928e-05
0.000346559
-7.22813e-05
0.000357513
-8.12629e-05
0.0003696
-9.16706e-05
0.000382933
-0.000103793
0.000397621
-0.00011799
0.00041376
-0.000134712
0.00043142
-0.000154524
0.000450607
-0.00017814
0.00047122
-0.000206462
0.000492964
-0.000240634
0.000515206
-0.000282091
0.000536746
-0.000332632
0.000555404
-0.000394453
0.000567409
-0.000470162
0.000566062
-0.000562569