/*--------------------------------*- C++ -*----------------------------------*\
  =========                 |
  \\      /  F ield         | OpenFOAM: The Open Source CFD Toolbox
   \\    /   O peration     | Website:  https://openfoam.org
    \\  /    A nd           | Version:  dev
     \\/     M anipulation  |
\*---------------------------------------------------------------------------*/
FoamFile
{
    version     2.0;
    format      ascii;
    class       volVectorField;
    location    "3";
    object      U;
}
// * * * * * * * * * * * * * * * * * * * * * * * * * * * * * * * * * * * * * //

dimensions      [0 1 -1 0 0 0 0];

internalField   nonuniform List<vector> 
8000
(
(0.0994812 0.000859108 0)
(0.0997149 0.0028278 0)
(0.0992353 0.00543374 0)
(0.0994931 0.00547153 0)
(0.0964803 0.00260975 0)
(0.0968047 0.0071628 0)
(0.092934 0.0159499 0)
(0.0916846 0.0173046 0)
(0.0901968 0.00455169 0)
(0.0898081 0.0106316 0)
(0.0846279 0.0224368 0)
(0.0791992 0.0291794 0)
(0.0813588 0.00653312 0)
(0.0800171 0.0133855 0)
(0.074414 0.0256603 0)
(0.0667036 0.0361736 0)
(0.0700769 0.00757106 0)
(0.0685559 0.0144452 0)
(0.0626933 0.0255815 0)
(0.0543155 0.0365684 0)
(0.0590201 0.00697336 0)
(0.0587099 0.0133935 0)
(0.0533474 0.0228998 0)
(0.0453671 0.031594 0)
(0.0505446 0.00538494 0)
(0.0508649 0.0110169 0)
(0.0463096 0.0187481 0)
(0.0399999 0.0246157 0)
(0.0437941 0.00376831 0)
(0.0443741 0.00849154 0)
(0.0409588 0.0144968 0)
(0.0363976 0.0185835 0)
(0.0387035 0.00265264 0)
(0.0393209 0.00651973 0)
(0.0368772 0.0110682 0)
(0.0335223 0.0141765 0)
(0.0348606 0.00195168 0)
(0.0354615 0.00507514 0)
(0.0337001 0.00853394 0)
(0.0311991 0.0110043 0)
(0.0318594 0.00148316 0)
(0.0324684 0.00399399 0)
(0.0311827 0.00666434 0)
(0.0293045 0.00865812 0)
(0.0294827 0.0011485 0)
(0.0301165 0.00317083 0)
(0.0291644 0.00526338 0)
(0.0277369 0.00688837 0)
(0.0275895 0.000901057 0)
(0.0282496 0.0025377 0)
(0.0275329 0.00419912 0)
(0.0264338 0.00553339 0)
(0.0260705 0.000714682 0)
(0.0267523 0.00204638 0)
(0.0262046 0.00337973 0)
(0.0253482 0.00448111 0)
(0.0248428 0.000572252 0)
(0.0255408 0.00166168 0)
(0.0251163 0.00274061 0)
(0.0244416 0.00365353 0)
(0.0238443 0.00046196 0)
(0.0245536 0.00135735 0)
(0.0242205 0.00223649 0)
(0.0236835 0.00299545 0)
(0.0230278 0.000375516 0)
(0.0237445 0.00111431 0)
(0.0234803 0.00183471 0)
(0.0230488 0.00246706 0)
(0.022357 0.000307006 0)
(0.0230782 0.000918548 0)
(0.0228667 0.00151149 0)
(0.0225173 0.00203918 0)
(0.0218038 0.000252147 0)
(0.0225277 0.000759641 0)
(0.0223569 0.00124937 0)
(0.022072 0.00169015 0)
(0.0213463 0.000207832 0)
(0.0220715 0.000629763 0)
(0.0219326 0.00103529 0)
(0.0216989 0.00140363 0)
(0.020967 0.000171785 0)
(0.0216926 0.000522982 0)
(0.0215791 0.000859392 0)
(0.0213865 0.00116718 0)
(0.0206521 0.000142252 0)
(0.0213777 0.000434726 0)
(0.0212846 0.000714112 0)
(0.0211251 0.000971156 0)
(0.0203905 0.000117911 0)
(0.0211157 0.000361473 0)
(0.0210392 0.000593607 0)
(0.0209067 0.000808044 0)
(0.0201732 9.77701e-05 0)
(0.0208978 0.000300481 0)
(0.0208348 0.000493326 0)
(0.0207244 0.000671946 0)
(0.0199926 8.10451e-05 0)
(0.0207166 0.000249555 0)
(0.0206649 0.000409626 0)
(0.0205727 0.000558112 0)
(0.0198429 6.71071e-05 0)
(0.0205661 0.000206948 0)
(0.0205238 0.000339618 0)
(0.0204467 0.000462748 0)
(0.0197189 5.54592e-05 0)
(0.0204415 0.000171243 0)
(0.020407 0.000280963 0)
(0.0203424 0.000382736 0)
(0.0196165 4.57083e-05 0)
(0.0203384 0.000141295 0)
(0.0203106 0.000231778 0)
(0.0202564 0.00031559 0)
(0.0195321 3.7542e-05 0)
(0.0202535 0.00011617 0)
(0.0202312 0.000190508 0)
(0.0201859 0.000259207 0)
(0.0194629 3.06959e-05 0)
(0.0201839 9.50858e-05 0)
(0.0201662 0.000155883 0)
(0.0201282 0.000211891 0)
(0.0194065 2.49667e-05 0)
(0.0201271 7.74112e-05 0)
(0.0201133 0.00012685 0)
(0.0200815 0.000172212 0)
(0.0193607 2.01737e-05 0)
(0.0200809 6.25946e-05 0)
(0.0200706 0.000102498 0)
(0.0200439 0.000138947 0)
(0.0193239 1.61554e-05 0)
(0.0200438 5.02061e-05 0)
(0.0200363 8.21489e-05 0)
(0.020014 0.000111117 0)
(0.0192944 1.27925e-05 0)
(0.0200142 3.9825e-05 0)
(0.020009 6.51089e-05 0)
(0.0199905 8.78603e-05 0)
(0.0192713 9.9946e-06 0)
(0.0199908 3.11937e-05 0)
(0.0199877 5.09289e-05 0)
(0.0199723 6.84856e-05 0)
(0.0192533 7.66446e-06 0)
(0.0199728 2.40042e-05 0)
(0.0199713 3.91235e-05 0)
(0.0199586 5.23752e-05 0)
(0.0192396 5.75449e-06 0)
(0.019959 1.80495e-05 0)
(0.019959 2.93491e-05 0)
(0.0199485 3.90451e-05 0)
(0.0192295 4.17541e-06 0)
(0.0199488 1.31396e-05 0)
(0.0199501 2.12699e-05 0)
(0.0199414 2.80461e-05 0)
(0.0192223 2.86512e-06 0)
(0.0199416 9.0844e-06 0)
(0.0199439 1.46201e-05 0)
(0.0199369 1.90077e-05 0)
(0.0192175 1.80123e-06 0)
(0.0199369 5.77768e-06 0)
(0.01994 9.20595e-06 0)
(0.0199343 1.16215e-05 0)
(0.0192147 9.36921e-07 0)
(0.0199341 3.09016e-06 0)
(0.0199379 4.79841e-06 0)
(0.0199333 5.63736e-06 0)
(0.0192134 2.47864e-07 0)
(0.0199329 9.15025e-07 0)
(0.0199373 1.23741e-06 0)
(0.0199337 8.51348e-07 0)
(0.0192135 -2.95219e-07 0)
(0.0199329 -8.0787e-07 0)
(0.019938 -1.59206e-06 0)
(0.0199351 -2.96559e-06 0)
(0.0192146 -7.38687e-07 0)
(0.019934 -2.16176e-06 0)
(0.0199395 -3.82359e-06 0)
(0.0199373 -5.99617e-06 0)
(0.0192164 -1.09204e-06 0)
(0.0199359 -3.22388e-06 0)
(0.0199417 -5.55083e-06 0)
(0.0199401 -8.33193e-06 0)
(0.0192188 -1.3374e-06 0)
(0.0199385 -4.03698e-06 0)
(0.0199445 -6.85993e-06 0)
(0.0199433 -1.00809e-05 0)
(0.0192217 -1.51032e-06 0)
(0.0199414 -4.64148e-06 0)
(0.0199478 -7.83723e-06 0)
(0.0199469 -1.13685e-05 0)
(0.019225 -1.64235e-06 0)
(0.0199447 -5.0673e-06 0)
(0.0199513 -8.53384e-06 0)
(0.0199507 -1.2275e-05 0)
(0.0192284 -1.7359e-06 0)
(0.0199483 -5.34907e-06 0)
(0.019955 -8.98858e-06 0)
(0.0199547 -1.28605e-05 0)
(0.019232 -1.79272e-06 0)
(0.0199519 -5.52102e-06 0)
(0.0199588 -9.25258e-06 0)
(0.0199587 -1.31919e-05 0)
(0.0192357 -1.81455e-06 0)
(0.0199557 -5.60095e-06 0)
(0.0199627 -9.36824e-06 0)
(0.0199627 -1.33215e-05 0)
(0.0192394 -1.80672e-06 0)
(0.0199595 -5.60201e-06 0)
(0.0199665 -9.36344e-06 0)
(0.0199667 -1.32827e-05 0)
(0.0192431 -1.77951e-06 0)
(0.0199633 -5.54353e-06 0)
(0.0199704 -9.26207e-06 0)
(0.0199707 -1.31085e-05 0)
(0.0192468 -1.74144e-06 0)
(0.019967 -5.44138e-06 0)
(0.0199741 -9.08624e-06 0)
(0.0199745 -1.28346e-05 0)
(0.0192503 -1.69584e-06 0)
(0.0199706 -5.3037e-06 0)
(0.0199778 -8.8515e-06 0)
(0.0199782 -1.2487e-05 0)
(0.0192537 -1.64125e-06 0)
(0.0199741 -5.13724e-06 0)
(0.0199813 -8.57249e-06 0)
(0.0199818 -1.20832e-05 0)
(0.0192571 -1.57952e-06 0)
(0.0199775 -4.9522e-06 0)
(0.0199847 -8.2628e-06 0)
(0.0199852 -1.16351e-05 0)
(0.0192603 -1.51218e-06 0)
(0.0199808 -4.75657e-06 0)
(0.019988 -7.9329e-06 0)
(0.0199885 -1.11575e-05 0)
(0.0192633 -1.44188e-06 0)
(0.0199839 -4.55323e-06 0)
(0.0199912 -7.58985e-06 0)
(0.0199917 -1.06656e-05 0)
(0.0192663 -1.37108e-06 0)
(0.0199869 -4.3443e-06 0)
(0.0199942 -7.2399e-06 0)
(0.0199947 -1.01689e-05 0)
(0.0192691 -1.30016e-06 0)
(0.0199897 -4.13355e-06 0)
(0.019997 -6.88928e-06 0)
(0.0199975 -9.67249e-06 0)
(0.0192717 -1.23134e-06 0)
(0.0199925 -3.92617e-06 0)
(0.0199997 -6.5413e-06 0)
(0.0200002 -9.18109e-06 0)
(0.0192742 -1.16555e-06 0)
(0.019995 -3.72477e-06 0)
(0.0200023 -6.19751e-06 0)
(0.0200028 -8.7014e-06 0)
(0.0192766 -1.10252e-06 0)
(0.0199975 -3.52895e-06 0)
(0.0200047 -5.86127e-06 0)
(0.0200052 -8.23755e-06 0)
(0.0192788 -1.03979e-06 0)
(0.0199998 -3.33848e-06 0)
(0.020007 -5.53746e-06 0)
(0.0200075 -7.78954e-06 0)
(0.019281 -9.7736e-07 0)
(0.020002 -3.15518e-06 0)
(0.0200092 -5.22834e-06 0)
(0.0200097 -7.35701e-06 0)
(0.019283 -9.18067e-07 0)
(0.020004 -2.98066e-06 0)
(0.0200113 -4.93408e-06 0)
(0.0200117 -6.94296e-06 0)
(0.0192849 -8.6345e-07 0)
(0.020006 -2.81435e-06 0)
(0.0200132 -4.65392e-06 0)
(0.0200136 -6.55069e-06 0)
(0.0192866 -8.12337e-07 0)
(0.0200078 -2.65534e-06 0)
(0.020015 -4.3904e-06 0)
(0.0200154 -6.1812e-06 0)
(0.0192883 -7.63848e-07 0)
(0.0200096 -2.50484e-06 0)
(0.0200168 -4.14425e-06 0)
(0.0200171 -5.83272e-06 0)
(0.0192899 -7.18871e-07 0)
(0.0200112 -2.36552e-06 0)
(0.0200184 -3.91436e-06 0)
(0.0200187 -5.50503e-06 0)
(0.0192914 -6.77395e-07 0)
(0.0200128 -2.23589e-06 0)
(0.0200199 -3.69835e-06 0)
(0.0200202 -5.20023e-06 0)
(0.0192928 -6.3827e-07 0)
(0.0200142 -2.114e-06 0)
(0.0200214 -3.49668e-06 0)
(0.0200217 -4.91933e-06 0)
(0.0192941 -5.99545e-07 0)
(0.0200156 -1.99966e-06 0)
(0.0200227 -3.31149e-06 0)
(0.020023 -4.65991e-06 0)
(0.0192954 -5.62662e-07 0)
(0.0200169 -1.89542e-06 0)
(0.020024 -3.14262e-06 0)
(0.0200243 -4.41922e-06 0)
(0.0192966 -5.31262e-07 0)
(0.0200182 -1.80205e-06 0)
(0.0200253 -2.98631e-06 0)
(0.0200255 -4.1971e-06 0)
(0.0192977 -5.05149e-07 0)
(0.0200194 -1.71709e-06 0)
(0.0200265 -2.84084e-06 0)
(0.0200267 -3.99552e-06 0)
(0.0192988 -4.81333e-07 0)
(0.0200205 -1.63766e-06 0)
(0.0200276 -2.7085e-06 0)
(0.0200278 -3.81541e-06 0)
(0.0192998 -4.58188e-07 0)
(0.0200216 -1.5651e-06 0)
(0.0200287 -2.59218e-06 0)
(0.0200289 -3.65477e-06 0)
(0.0193008 -4.37317e-07 0)
(0.0200226 -1.50249e-06 0)
(0.0200297 -2.49132e-06 0)
(0.0200299 -3.51132e-06 0)
(0.0193018 -4.20752e-07 0)
(0.0200236 -1.44952e-06 0)
(0.0200307 -2.40253e-06 0)
(0.0200309 -3.38455e-06 0)
(0.0193027 -4.07056e-07 0)
(0.0200246 -1.40312e-06 0)
(0.0200316 -2.3247e-06 0)
(0.0200318 -3.27636e-06 0)
(0.0193036 -3.94202e-07 0)
(0.0200256 -1.36215e-06 0)
(0.0200326 -2.25944e-06 0)
(0.0200327 -3.18651e-06 0)
(0.0193044 -3.82537e-07 0)
(0.0200265 -1.3282e-06 0)
(0.0200335 -2.20819e-06 0)
(0.0200336 -3.11376e-06 0)
(0.0193053 -3.73292e-07 0)
(0.0200274 -1.3032e-06 0)
(0.0200344 -2.17037e-06 0)
(0.0200345 -3.05688e-06 0)
(0.0193061 -3.68427e-07 0)
(0.0200283 -1.2871e-06 0)
(0.0200353 -2.14318e-06 0)
(0.0200353 -3.01599e-06 0)
(0.0193069 -3.67087e-07 0)
(0.0200291 -1.27749e-06 0)
(0.0200361 -2.12588e-06 0)
(0.0200362 -2.99294e-06 0)
(0.0193077 -3.67246e-07 0)
(0.02003 -1.2735e-06 0)
(0.020037 -2.1205e-06 0)
(0.020037 -2.98772e-06 0)
(0.0193086 -3.68843e-07 0)
(0.0200309 -1.27662e-06 0)
(0.0200378 -2.12868e-06 0)
(0.0200379 -2.99984e-06 0)
(0.0193094 -3.73297e-07 0)
(0.0200318 -1.28863e-06 0)
(0.0200387 -2.15017e-06 0)
(0.0200387 -3.02804e-06 0)
(0.0193102 -3.80877e-07 0)
(0.0200327 -1.30854e-06 0)
(0.0200396 -2.18289e-06 0)
(0.0200396 -3.07336e-06 0)
(0.0193111 -3.90708e-07 0)
(0.0200336 -1.33506e-06 0)
(0.0200405 -2.22741e-06 0)
(0.0200405 -3.13714e-06 0)
(0.0193119 -4.01493e-07 0)
(0.0200345 -1.36821e-06 0)
(0.0200414 -2.28588e-06 0)
(0.0200414 -3.22046e-06 0)
(0.0193128 -4.13945e-07 0)
(0.0200355 -1.41004e-06 0)
(0.0200424 -2.3604e-06 0)
(0.0200423 -3.32337e-06 0)
(0.0193138 -4.30578e-07 0)
(0.0200364 -1.46282e-06 0)
(0.0200433 -2.44983e-06 0)
(0.0200433 -3.44483e-06 0)
(0.0193147 -4.52281e-07 0)
(0.0200375 -1.52574e-06 0)
(0.0200443 -2.55205e-06 0)
(0.0200443 -3.58546e-06 0)
(0.0193157 -4.77357e-07 0)
(0.0200385 -1.59664e-06 0)
(0.0200454 -2.66713e-06 0)
(0.0200453 -3.74771e-06 0)
(0.0193168 -5.04262e-07 0)
(0.0200396 -1.67495e-06 0)
(0.0200465 -2.79779e-06 0)
(0.0200464 -3.93404e-06 0)
(0.0193179 -5.32222e-07 0)
(0.0200408 -1.76259e-06 0)
(0.0200477 -2.94774e-06 0)
(0.0200475 -4.14522e-06 0)
(0.0193191 -5.63448e-07 0)
(0.0200421 -1.86223e-06 0)
(0.0200489 -3.11785e-06 0)
(0.0200487 -4.38163e-06 0)
(0.0193203 -6.00276e-07 0)
(0.0200434 -1.97569e-06 0)
(0.0200502 -3.30661e-06 0)
(0.02005 -4.64313e-06 0)
(0.0193216 -6.42501e-07 0)
(0.0200448 -2.10175e-06 0)
(0.0200516 -3.51382e-06 0)
(0.0200514 -4.93198e-06 0)
(0.019323 -6.87949e-07 0)
(0.0200463 -2.2383e-06 0)
(0.020053 -3.74121e-06 0)
(0.0200528 -5.25241e-06 0)
(0.0193245 -7.35884e-07 0)
(0.0200479 -2.38734e-06 0)
(0.0200546 -3.99315e-06 0)
(0.0200543 -5.60704e-06 0)
(0.0193261 -7.87025e-07 0)
(0.0200495 -2.55125e-06 0)
(0.0200563 -4.27272e-06 0)
(0.020056 -5.99758e-06 0)
(0.0193278 -8.43932e-07 0)
(0.0200514 -2.73358e-06 0)
(0.0200581 -4.58024e-06 0)
(0.0200577 -6.42397e-06 0)
(0.0193297 -9.08366e-07 0)
(0.0200533 -2.93495e-06 0)
(0.02006 -4.91542e-06 0)
(0.0200596 -6.88743e-06 0)
(0.0193317 -9.80008e-07 0)
(0.0200554 -3.15365e-06 0)
(0.020062 -5.27719e-06 0)
(0.0200616 -7.39219e-06 0)
(0.0193338 -1.05689e-06 0)
(0.0200576 -3.38985e-06 0)
(0.0200642 -5.66997e-06 0)
(0.0200638 -7.94312e-06 0)
(0.0193361 -1.13817e-06 0)
(0.02006 -3.64485e-06 0)
(0.0200666 -6.09918e-06 0)
(0.0200661 -8.54531e-06 0)
(0.0193386 -1.22539e-06 0)
(0.0200626 -3.92325e-06 0)
(0.0200692 -6.56941e-06 0)
(0.0200686 -9.2024e-06 0)
(0.0193412 -1.32159e-06 0)
(0.0200654 -4.22889e-06 0)
(0.0200719 -7.08255e-06 0)
(0.0200713 -9.91647e-06 0)
(0.0193441 -1.42945e-06 0)
(0.0200683 -4.56331e-06 0)
(0.0200748 -7.63843e-06 0)
(0.0200742 -1.06903e-05 0)
(0.0193472 -1.54824e-06 0)
(0.0200716 -4.9259e-06 0)
(0.020078 -8.23862e-06 0)
(0.0200773 -1.15287e-05 0)
(0.0193505 -1.6759e-06 0)
(0.020075 -5.31691e-06 0)
(0.0200815 -8.88787e-06 0)
(0.0200807 -1.24385e-05 0)
(0.0193542 -1.81119e-06 0)
(0.0200788 -5.73815e-06 0)
(0.0200852 -9.59296e-06 0)
(0.0200843 -1.34273e-05 0)
(0.0193581 -1.95548e-06 0)
(0.0200829 -6.1949e-06 0)
(0.0200892 -1.03613e-05 0)
(0.0200883 -1.45017e-05 0)
(0.0193623 -2.11183e-06 0)
(0.0200872 -6.69235e-06 0)
(0.0200935 -1.11977e-05 0)
(0.0200925 -1.56677e-05 0)
(0.0193668 -2.28376e-06 0)
(0.020092 -7.23468e-06 0)
(0.0200982 -1.21051e-05 0)
(0.0200971 -1.69312e-05 0)
(0.0193718 -2.473e-06 0)
(0.0200971 -7.82405e-06 0)
(0.0201032 -1.30857e-05 0)
(0.020102 -1.82981e-05 0)
(0.0193771 -2.67878e-06 0)
(0.0201026 -8.46077e-06 0)
(0.0201087 -1.41442e-05 0)
(0.0201074 -1.97767e-05 0)
(0.0193829 -2.90044e-06 0)
(0.0201086 -9.14806e-06 0)
(0.0201146 -1.52901e-05 0)
(0.0201132 -2.13796e-05 0)
(0.0193891 -3.13913e-06 0)
(0.020115 -9.89213e-06 0)
(0.020121 -1.65327e-05 0)
(0.0201194 -2.31174e-05 0)
(0.0193959 -3.39649e-06 0)
(0.020122 -1.06981e-05 0)
(0.0201279 -1.78808e-05 0)
(0.0201262 -2.50008e-05 0)
(0.0194032 -3.6755e-06 0)
(0.0201295 -1.15726e-05 0)
(0.0201353 -1.93424e-05 0)
(0.0201335 -2.70415e-05 0)
(0.0194111 -3.97999e-06 0)
(0.0201377 -1.25218e-05 0)
(0.0201434 -2.09256e-05 0)
(0.0201414 -2.92522e-05 0)
(0.0194196 -4.31154e-06 0)
(0.0201465 -1.35504e-05 0)
(0.0201521 -2.2639e-05 0)
(0.02015 -3.16459e-05 0)
(0.0194289 -4.66957e-06 0)
(0.0201561 -1.46624e-05 0)
(0.0201615 -2.44936e-05 0)
(0.0201592 -3.42383e-05 0)
(0.0194389 -5.05467e-06 0)
(0.0201664 -1.58649e-05 0)
(0.0201717 -2.65036e-05 0)
(0.0201692 -3.70475e-05 0)
(0.0194498 -5.46965e-06 0)
(0.0201776 -1.71672e-05 0)
(0.0201828 -2.86833e-05 0)
(0.0201801 -4.00916e-05 0)
(0.0194615 -5.91944e-06 0)
(0.0201897 -1.85798e-05 0)
(0.0201947 -3.10472e-05 0)
(0.0201918 -4.33911e-05 0)
(0.0194742 -6.40898e-06 0)
(0.0202028 -2.01132e-05 0)
(0.0202076 -3.36092e-05 0)
(0.0202045 -4.69652e-05 0)
(0.019488 -6.94259e-06 0)
(0.0202169 -2.17765e-05 0)
(0.0202216 -3.63831e-05 0)
(0.0202182 -5.08362e-05 0)
(0.0195029 -7.5223e-06 0)
(0.0202323 -2.3578e-05 0)
(0.0202368 -3.93854e-05 0)
(0.020233 -5.50285e-05 0)
(0.019519 -8.14952e-06 0)
(0.0202489 -2.55273e-05 0)
(0.0202531 -4.2637e-05 0)
(0.0202491 -5.95718e-05 0)
(0.0195365 -8.82692e-06 0)
(0.0202669 -2.76384e-05 0)
(0.0202709 -4.61627e-05 0)
(0.0202665 -6.44977e-05 0)
(0.0195554 -9.55979e-06 0)
(0.0202863 -2.99275e-05 0)
(0.0202901 -4.99877e-05 0)
(0.0202854 -6.98395e-05 0)
(0.0195759 -1.0355e-05 0)
(0.0203074 -3.24114e-05 0)
(0.0203109 -5.4137e-05 0)
(0.0203058 -7.56318e-05 0)
(0.0195981 -1.12189e-05 0)
(0.0203302 -3.5106e-05 0)
(0.0203334 -5.86368e-05 0)
(0.0203279 -8.19121e-05 0)
(0.0196221 -1.21565e-05 0)
(0.0203549 -3.80282e-05 0)
(0.0203578 -6.35154e-05 0)
(0.0203518 -8.87221e-05 0)
(0.0196481 -1.31732e-05 0)
(0.0203817 -4.11973e-05 0)
(0.0203843 -6.88075e-05 0)
(0.0203777 -9.61094e-05 0)
(0.0196764 -1.42755e-05 0)
(0.0204107 -4.46355e-05 0)
(0.0204129 -7.45505e-05 0)
(0.0204058 -0.000104126 0)
(0.0197069 -1.54722e-05 0)
(0.0204421 -4.83679e-05 0)
(0.0204439 -8.07854e-05 0)
(0.0204362 -0.000112827 0)
(0.0197401 -1.67722e-05 0)
(0.0204762 -5.24214e-05 0)
(0.0204775 -8.75544e-05 0)
(0.0204691 -0.000122271 0)
(0.019776 -1.81848e-05 0)
(0.0205131 -5.68234e-05 0)
(0.0205139 -9.49037e-05 0)
(0.0205048 -0.000132524 0)
(0.019815 -1.97194e-05 0)
(0.0205531 -6.16044e-05 0)
(0.0205534 -0.000102885 0)
(0.0205435 -0.00014366 0)
(0.0198572 -2.13879e-05 0)
(0.0205965 -6.67995e-05 0)
(0.0205962 -0.000111558 0)
(0.0205854 -0.00015576 0)
(0.019903 -2.32027e-05 0)
(0.0206435 -7.24478e-05 0)
(0.0206426 -0.000120987 0)
(0.0206309 -0.000168913 0)
(0.0199527 -2.51773e-05 0)
(0.0206945 -7.8591e-05 0)
(0.0206929 -0.000131239 0)
(0.0206801 -0.000183213 0)
(0.0200066 -2.73259e-05 0)
(0.0207498 -8.52738e-05 0)
(0.0207475 -0.000142391 0)
(0.0207336 -0.000198768 0)
(0.0200651 -2.96627e-05 0)
(0.0208099 -9.25452e-05 0)
(0.0208067 -0.000154528 0)
(0.0207916 -0.000215695 0)
(0.0201286 -3.22048e-05 0)
(0.020875 -0.000100462 0)
(0.0208709 -0.000167746 0)
(0.0208545 -0.000234127 0)
(0.0201975 -3.49739e-05 0)
(0.0209458 -0.000109091 0)
(0.0209407 -0.000182152 0)
(0.0209227 -0.000254207 0)
(0.0202724 -3.79949e-05 0)
(0.0210226 -0.000118501 0)
(0.0210164 -0.000197859 0)
(0.0209968 -0.000276094 0)
(0.0203538 -4.12954e-05 0)
(0.0211061 -0.000128771 0)
(0.0210986 -0.000214991 0)
(0.0210773 -0.000299963 0)
(0.0204422 -4.49008e-05 0)
(0.0211967 -0.000139982 0)
(0.021188 -0.000233687 0)
(0.0211647 -0.000326008 0)
(0.0205384 -4.88414e-05 0)
(0.0212953 -0.000152229 0)
(0.0212851 -0.000254106 0)
(0.0212596 -0.000354452 0)
(0.020643 -5.31502e-05 0)
(0.0214025 -0.000165616 0)
(0.0213907 -0.000276428 0)
(0.0213628 -0.000385541 0)
(0.0207568 -5.78631e-05 0)
(0.0215192 -0.000180266 0)
(0.0215056 -0.000300853 0)
(0.021475 -0.000419552 0)
(0.0208808 -6.30271e-05 0)
(0.0216462 -0.000196317 0)
(0.0216306 -0.000327607 0)
(0.0215971 -0.000456793 0)
(0.0210158 -6.86929e-05 0)
(0.0217845 -0.000213919 0)
(0.0217667 -0.000356939 0)
(0.02173 -0.000497608 0)
(0.021163 -7.49138e-05 0)
(0.0219352 -0.000233241 0)
(0.021915 -0.000389131 0)
(0.0218747 -0.000542388 0)
(0.0213236 -8.17517e-05 0)
(0.0220996 -0.000254478 0)
(0.0220766 -0.000424504 0)
(0.0220323 -0.000591573 0)
(0.0214988 -8.92779e-05 0)
(0.0222789 -0.000277849 0)
(0.0222529 -0.000463423 0)
(0.0222041 -0.000645669 0)
(0.0216902 -9.75759e-05 0)
(0.0224748 -0.000303609 0)
(0.0224454 -0.000506305 0)
(0.0223915 -0.000705244 0)
(0.0218995 -0.000106741 0)
(0.0226888 -0.000332046 0)
(0.0226556 -0.000553622 0)
(0.0225961 -0.000770946 0)
(0.0221286 -0.000116879 0)
(0.0229229 -0.000363487 0)
(0.0228854 -0.000605914 0)
(0.0228196 -0.000843519 0)
(0.0223794 -0.000128112 0)
(0.0231792 -0.000398309 0)
(0.0231368 -0.000663808 0)
(0.023064 -0.000923825 0)
(0.0226545 -0.000140582 0)
(0.0234601 -0.000436956 0)
(0.0234122 -0.000728033 0)
(0.0233313 -0.00101286 0)
(0.0229565 -0.000154459 0)
(0.0237683 -0.000479942 0)
(0.0237142 -0.000799433 0)
(0.0236242 -0.00111176 0)
(0.0232884 -0.000169941 0)
(0.0241069 -0.000527867 0)
(0.0240457 -0.000878983 0)
(0.0239453 -0.00122186 0)
(0.0236539 -0.000187257 0)
(0.0244794 -0.000581428 0)
(0.02441 -0.000967828 0)
(0.0242978 -0.00134472 0)
(0.0240567 -0.000206675 0)
(0.0248898 -0.00064145 0)
(0.024811 -0.00106732 0)
(0.0246851 -0.00148218 0)
(0.0245017 -0.000228516 0)
(0.0253426 -0.000708922 0)
(0.025253 -0.00117908 0)
(0.0251115 -0.00163641 0)
(0.024994 -0.000253171 0)
(0.0258432 -0.000785021 0)
(0.025741 -0.00130501 0)
(0.0255813 -0.00180997 0)
(0.0255398 -0.000281105 0)
(0.0263976 -0.00087115 0)
(0.0262808 -0.00144738 0)
(0.0260999 -0.00200593 0)
(0.0261464 -0.000312879 0)
(0.027013 -0.000969008 0)
(0.026879 -0.00160896 0)
(0.0266734 -0.002228 0)
(0.0268222 -0.000349179 0)
(0.0276977 -0.00108068 0)
(0.0275434 -0.00179311 0)
(0.0273087 -0.00248063 0)
(0.0275771 -0.000390856 0)
(0.0284616 -0.00120871 0)
(0.0282831 -0.00200393 0)
(0.0280139 -0.00276927 0)
(0.0284231 -0.000438965 0)
(0.0293161 -0.00135626 0)
(0.0291087 -0.00224648 0)
(0.0287983 -0.0031006 0)
(0.0293745 -0.000494821 0)
(0.0302752 -0.00152727 0)
(0.0300329 -0.00252704 0)
(0.0296731 -0.00348288 0)
(0.0304484 -0.000560096 0)
(0.0313554 -0.0017267 0)
(0.0310707 -0.00285353 0)
(0.0306509 -0.00392642 0)
(0.0316658 -0.000636932 0)
(0.0325769 -0.00196091 0)
(0.0322401 -0.00323597 0)
(0.0317471 -0.00444418 0)
(0.0330525 -0.000728099 0)
(0.0339643 -0.00223806 0)
(0.0335629 -0.0036872 0)
(0.0329795 -0.00505266 0)
(0.0346409 -0.000837227 0)
(0.0355479 -0.00256878 0)
(0.0350654 -0.00422385 0)
(0.0343694 -0.00577303 0)
(0.0364711 -0.000969152 0)
(0.0373656 -0.00296718 0)
(0.0367801 -0.00486776 0)
(0.0359423 -0.00663273 0)
(0.0385949 -0.00113041 0)
(0.0394649 -0.00345214 0)
(0.0387469 -0.00564795 0)
(0.0377283 -0.0076678 0)
(0.0410788 -0.00132993 0)
(0.0419066 -0.00404936 0)
(0.0410158 -0.0066035 0)
(0.0397636 -0.00892613 0)
(0.04401 -0.00158019 0)
(0.0447691 -0.00479438 0)
(0.0436495 -0.00778794 0)
(0.0420912 -0.0104721 0)
(0.0475054 -0.00189888 0)
(0.0481558 -0.00573718 0)
(0.0467275 -0.0092756 0)
(0.0447622 -0.0123938 0)
(0.0517207 -0.00231178 0)
(0.0522029 -0.00694985 0)
(0.0503519 -0.0111719 0)
(0.0478365 -0.0148127 0)
(0.0568833 -0.00285569 0)
(0.0571001 -0.00853511 0)
(0.054654 -0.0136275 0)
(0.0513819 -0.0179001 0)
(0.0632583 -0.00359219 0)
(0.0630923 -0.0106585 0)
(0.0598129 -0.0168684 0)
(0.0554766 -0.0218995 0)
(0.0714586 -0.00458398 0)
(0.0705812 -0.0135147 0)
(0.066029 -0.0212166 0)
(0.0601811 -0.0271738 0)
(0.081401 -0.00603264 0)
(0.079962 -0.0175921 0)
(0.0737597 -0.0272044 0)
(0.0656245 -0.0342223 0)
(0.0965151 -0.00802731 0)
(0.0923958 -0.0231243 0)
(0.0829688 -0.0355947 0)
(0.0715783 -0.0439845 0)
(0.109993 -0.0104537 0)
(0.107379 -0.0309938 0)
(0.0959994 -0.0475637 0)
(0.0790766 -0.0573809 0)
(0.145451 -0.0161128 0)
(0.132903 -0.0442255 0)
(0.110198 -0.0655197 0)
(0.0840502 -0.077833 0)
(0.156637 -0.0169957 0)
(0.150054 -0.0524861 0)
(0.133721 -0.0873319 0)
(0.103484 -0.105432 0)
(0.244259 -0.0334862 0)
(0.223432 -0.0973552 0)
(0.174903 -0.14733 0)
(0.100635 -0.167033 0)
(0.0405414 0.0110604 0)
(0.0437389 0.0250249 0)
(0.0405349 0.0410962 0)
(0.0371883 0.0466692 0)
(0.0337372 0.0443992 0)
(0.0322315 0.0361971 0)
(0.0316595 0.0274421 0)
(0.0306925 0.0208631 0)
(0.0294497 0.0161368 0)
(0.0282184 0.012683 0)
(0.0270734 0.0100907 0)
(0.0260358 0.00810888 0)
(0.0251167 0.00657054 0)
(0.0243148 0.00536027 0)
(0.0236216 0.00439724 0)
(0.0230262 0.00362358 0)
(0.0225174 0.00299688 0)
(0.0220844 0.00248555 0)
(0.021717 0.00206576 0)
(0.0214063 0.00171929 0)
(0.0211441 0.00143206 0)
(0.0209236 0.00119305 0)
(0.0207386 0.000993547 0)
(0.0205839 0.000826653 0)
(0.020455 0.000686756 0)
(0.020348 0.000569378 0)
(0.0202596 0.000470756 0)
(0.0201869 0.000387911 0)
(0.0201274 0.000318291 0)
(0.0200792 0.000259837 0)
(0.0200404 0.000210783 0)
(0.0200096 0.000169687 0)
(0.0199853 0.000135288 0)
(0.0199666 0.000106572 0)
(0.0199524 8.2642e-05 0)
(0.0199421 6.27936e-05 0)
(0.0199349 4.6353e-05 0)
(0.0199302 3.27889e-05 0)
(0.0199277 2.17043e-05 0)
(0.0199268 1.26628e-05 0)
(0.0199274 5.31317e-06 0)
(0.0199289 -5.63332e-07 0)
(0.0199313 -5.20048e-06 0)
(0.0199343 -8.83602e-06 0)
(0.0199378 -1.16388e-05 0)
(0.0199417 -1.37428e-05 0)
(0.0199458 -1.52703e-05 0)
(0.01995 -1.63199e-05 0)
(0.0199543 -1.69778e-05 0)
(0.0199585 -1.73215e-05 0)
(0.0199628 -1.74144e-05 0)
(0.0199669 -1.7304e-05 0)
(0.019971 -1.70337e-05 0)
(0.0199749 -1.6642e-05 0)
(0.0199787 -1.61578e-05 0)
(0.0199824 -1.56048e-05 0)
(0.0199858 -1.50042e-05 0)
(0.0199892 -1.43767e-05 0)
(0.0199923 -1.37349e-05 0)
(0.0199953 -1.30836e-05 0)
(0.0199982 -1.24304e-05 0)
(0.0200009 -1.1787e-05 0)
(0.0200034 -1.11618e-05 0)
(0.0200058 -1.05569e-05 0)
(0.0200081 -9.97392e-06 0)
(0.0200102 -9.4174e-06 0)
(0.0200122 -8.89067e-06 0)
(0.0200141 -8.39193e-06 0)
(0.0200159 -7.91702e-06 0)
(0.0200176 -7.46697e-06 0)
(0.0200191 -7.04571e-06 0)
(0.0200206 -6.65535e-06 0)
(0.020022 -6.29324e-06 0)
(0.0200234 -5.95624e-06 0)
(0.0200246 -5.64531e-06 0)
(0.0200258 -5.36281e-06 0)
(0.0200269 -5.10822e-06 0)
(0.020028 -4.87791e-06 0)
(0.0200291 -4.66981e-06 0)
(0.02003 -4.48424e-06 0)
(0.020031 -4.32338e-06 0)
(0.0200319 -4.1859e-06 0)
(0.0200328 -4.07028e-06 0)
(0.0200337 -3.97511e-06 0)
(0.0200345 -3.9016e-06 0)
(0.0200354 -3.85143e-06 0)
(0.0200362 -3.82407e-06 0)
(0.020037 -3.81785e-06 0)
(0.0200379 -3.83186e-06 0)
(0.0200387 -3.86742e-06 0)
(0.0200395 -3.92655e-06 0)
(0.0200404 -4.00935e-06 0)
(0.0200413 -4.11569e-06 0)
(0.0200422 -4.245e-06 0)
(0.0200431 -4.39883e-06 0)
(0.0200441 -4.57947e-06 0)
(0.0200451 -4.78932e-06 0)
(0.0200461 -5.02892e-06 0)
(0.0200473 -5.29842e-06 0)
(0.0200484 -5.5988e-06 0)
(0.0200497 -5.93267e-06 0)
(0.020051 -6.30355e-06 0)
(0.0200524 -6.7149e-06 0)
(0.0200539 -7.16857e-06 0)
(0.0200555 -7.66553e-06 0)
(0.0200572 -8.20803e-06 0)
(0.020059 -8.79935e-06 0)
(0.020061 -9.44551e-06 0)
(0.0200631 -1.01518e-05 0)
(0.0200654 -1.09229e-05 0)
(0.0200678 -1.17622e-05 0)
(0.0200704 -1.26733e-05 0)
(0.0200733 -1.36608e-05 0)
(0.0200763 -1.47324e-05 0)
(0.0200796 -1.58962e-05 0)
(0.0200831 -1.71608e-05 0)
(0.020087 -1.85335e-05 0)
(0.0200911 -2.00219e-05 0)
(0.0200956 -2.16348e-05 0)
(0.0201004 -2.33799e-05 0)
(0.0201056 -2.52696e-05 0)
(0.0201113 -2.73182e-05 0)
(0.0201174 -2.95391e-05 0)
(0.0201239 -3.19454e-05 0)
(0.0201311 -3.45523e-05 0)
(0.0201388 -3.73759e-05 0)
(0.0201471 -4.04335e-05 0)
(0.0201561 -4.37453e-05 0)
(0.0201659 -4.73332e-05 0)
(0.0201764 -5.12216e-05 0)
(0.0201878 -5.54348e-05 0)
(0.0202002 -5.99985e-05 0)
(0.0202136 -6.49414e-05 0)
(0.020228 -7.02956e-05 0)
(0.0202437 -7.60984e-05 0)
(0.0202607 -8.23896e-05 0)
(0.020279 -8.92108e-05 0)
(0.0202989 -9.66061e-05 0)
(0.0203204 -0.000104623 0)
(0.0203437 -0.000113317 0)
(0.0203689 -0.000122747 0)
(0.0203962 -0.00013298 0)
(0.0204258 -0.000144084 0)
(0.0204579 -0.000156136 0)
(0.0204926 -0.00016922 0)
(0.0205303 -0.000183429 0)
(0.020571 -0.000198867 0)
(0.0206152 -0.000215645 0)
(0.0206631 -0.000233885 0)
(0.0207151 -0.000253721 0)
(0.0207714 -0.000275305 0)
(0.0208326 -0.000298802 0)
(0.0208989 -0.000324394 0)
(0.0209708 -0.000352282 0)
(0.0210489 -0.000382689 0)
(0.0211337 -0.000415862 0)
(0.0212258 -0.000452082 0)
(0.0213258 -0.000491659 0)
(0.0214346 -0.000534942 0)
(0.0215528 -0.000582316 0)
(0.0216814 -0.000634217 0)
(0.0218213 -0.000691133 0)
(0.0219736 -0.000753622 0)
(0.0221396 -0.000822313 0)
(0.0223204 -0.000897919 0)
(0.0225177 -0.00098125 0)
(0.0227329 -0.00107324 0)
(0.0229679 -0.00117495 0)
(0.0232248 -0.00128762 0)
(0.0235058 -0.00141267 0)
(0.0238133 -0.00155174 0)
(0.0241504 -0.00170675 0)
(0.0245201 -0.00187998 0)
(0.0249261 -0.00207406 0)
(0.0253725 -0.00229212 0)
(0.0258638 -0.00253791 0)
(0.0264055 -0.0028159 0)
(0.0270035 -0.00313145 0)
(0.0276647 -0.00349109 0)
(0.0283969 -0.00390274 0)
(0.0292091 -0.00437617 0)
(0.0301117 -0.00492344 0)
(0.0311165 -0.00555957 0)
(0.032237 -0.00630349 0)
(0.0334887 -0.00717918 0)
(0.0348892 -0.0082173 0)
(0.036458 -0.00945747 0)
(0.0382166 -0.0109513 0)
(0.0401877 -0.0127669 0)
(0.0423935 -0.0149945 0)
(0.0448529 -0.0177558 0)
(0.0475749 -0.0212155 0)
(0.0505476 -0.025599 0)
(0.0537168 -0.0312214 0)
(0.0569414 -0.0385085 0)
(0.0599357 -0.0481212 0)
(0.0620351 -0.0608099 0)
(0.061673 -0.0785299 0)
(0.0592098 -0.102 0)
(0.0172499 -0.143179 0)
(-0.00497503 -0.0174869 0)
(-0.00087503 0.0250021 0)
(0.00374886 0.04151 0)
(0.00958399 0.0454674 0)
(0.0157901 0.0417815 0)
(0.0209798 0.0340298 0)
(0.0240008 0.0266937 0)
(0.0251943 0.0210153 0)
(0.0254175 0.0167215 0)
(0.0251872 0.0134327 0)
(0.024747 0.0108753 0)
(0.0242234 0.00886359 0)
(0.0236872 0.00726468 0)
(0.0231752 0.00598204 0)
(0.0227047 0.00494484 0)
(0.0222826 0.00410029 0)
(0.0219103 0.00340839 0)
(0.0215856 0.00283845 0)
(0.0213052 0.00236681 0)
(0.0210647 0.00197494 0)
(0.0208598 0.00164824 0)
(0.0206862 0.00137514 0)
(0.02054 0.00114631 0)
(0.0204174 0.000954267 0)
(0.0203152 0.00079286 0)
(0.0202306 0.00065716 0)
(0.0201609 0.000542981 0)
(0.0201039 0.000446949 0)
(0.0200577 0.000366181 0)
(0.0200207 0.000298336 0)
(0.0199914 0.000241385 0)
(0.0199685 0.000193659 0)
(0.019951 0.000153743 0)
(0.019938 0.000120447 0)
(0.0199287 9.27029e-05 0)
(0.0199224 6.97227e-05 0)
(0.0199186 5.0733e-05 0)
(0.0199169 3.50906e-05 0)
(0.0199169 2.23009e-05 0)
(0.019918 1.19056e-05 0)
(0.0199203 3.52586e-06 0)
(0.0199233 -3.16186e-06 0)
(0.0199269 -8.44741e-06 0)
(0.019931 -1.25608e-05 0)
(0.0199353 -1.56888e-05 0)
(0.0199399 -1.80038e-05 0)
(0.0199445 -1.96557e-05 0)
(0.0199492 -2.07631e-05 0)
(0.0199538 -2.14221e-05 0)
(0.0199584 -2.17165e-05 0)
(0.0199629 -2.17205e-05 0)
(0.0199672 -2.14978e-05 0)
(0.0199715 -2.10989e-05 0)
(0.0199755 -2.05618e-05 0)
(0.0199794 -1.99186e-05 0)
(0.0199831 -1.92003e-05 0)
(0.0199866 -1.84321e-05 0)
(0.0199899 -1.76345e-05 0)
(0.0199931 -1.6822e-05 0)
(0.0199961 -1.6007e-05 0)
(0.019999 -1.52019e-05 0)
(0.0200016 -1.44127e-05 0)
(0.0200041 -1.36404e-05 0)
(0.0200065 -1.28882e-05 0)
(0.0200088 -1.21641e-05 0)
(0.0200108 -1.14753e-05 0)
(0.0200128 -1.08227e-05 0)
(0.0200147 -1.02037e-05 0)
(0.0200164 -9.61928e-06 0)
(0.0200181 -9.07348e-06 0)
(0.0200196 -8.56647e-06 0)
(0.0200211 -8.09379e-06 0)
(0.0200224 -7.65162e-06 0)
(0.0200237 -7.24051e-06 0)
(0.020025 -6.86405e-06 0)
(0.0200261 -6.52225e-06 0)
(0.0200272 -6.21066e-06 0)
(0.0200283 -5.92714e-06 0)
(0.0200293 -5.67204e-06 0)
(0.0200303 -5.4477e-06 0)
(0.0200312 -5.25327e-06 0)
(0.0200321 -5.08531e-06 0)
(0.0200329 -4.94294e-06 0)
(0.0200338 -4.82694e-06 0)
(0.0200346 -4.73935e-06 0)
(0.0200354 -4.68007e-06 0)
(0.0200362 -4.64642e-06 0)
(0.020037 -4.6372e-06 0)
(0.0200378 -4.65324e-06 0)
(0.0200386 -4.69749e-06 0)
(0.0200395 -4.77007e-06 0)
(0.0200403 -4.87008e-06 0)
(0.0200411 -4.99685e-06 0)
(0.020042 -5.15212e-06 0)
(0.0200429 -5.33894e-06 0)
(0.0200438 -5.56013e-06 0)
(0.0200448 -5.8159e-06 0)
(0.0200459 -6.10599e-06 0)
(0.0200469 -6.43081e-06 0)
(0.0200481 -6.79367e-06 0)
(0.0200493 -7.19878e-06 0)
(0.0200506 -7.65006e-06 0)
(0.0200519 -8.14929e-06 0)
(0.0200534 -8.69761e-06 0)
(0.0200549 -9.29724e-06 0)
(0.0200566 -9.95258e-06 0)
(0.0200583 -1.06695e-05 0)
(0.0200602 -1.1454e-05 0)
(0.0200623 -1.23113e-05 0)
(0.0200645 -1.32456e-05 0)
(0.0200668 -1.42607e-05 0)
(0.0200694 -1.53624e-05 0)
(0.0200721 -1.6558e-05 0)
(0.020075 -1.78572e-05 0)
(0.0200782 -1.92678e-05 0)
(0.0200817 -2.08e-05 0)