/*--------------------------------*- C++ -*----------------------------------*\
  =========                 |
  \\      /  F ield         | OpenFOAM: The Open Source CFD Toolbox
   \\    /   O peration     | Website:  https://openfoam.org
    \\  /    A nd           | Version:  dev
     \\/     M anipulation  |
\*---------------------------------------------------------------------------*/
FoamFile
{
    version     2.0;
    format      ascii;
    class       surfaceScalarField;
    location    "12";
    object      phi;
}
// * * * * * * * * * * * * * * * * * * * * * * * * * * * * * * * * * * * * * //

dimensions      [1 0 -1 0 0 0 0];

internalField   nonuniform List<scalar> 
15760
(
1.79011e-06
0.00115683
-6.34112e-06
0.00116674
-2.37955e-05
0.00117606
0.00115085
-1.60471e-05
-9.52227e-07
0.00115778
-1.15989e-05
0.00117739
-3.74223e-05
0.00120188
0.0011654
-5.19676e-05
1.92249e-06
0.00115586
-6.60356e-06
0.00118592
-3.39991e-05
0.00122928
0.00119964
-6.824e-05
1.32576e-05
0.0011426
1.48534e-05
0.00118432
1.23252e-06
0.0012429
0.00124893
-4.80601e-05
3.41728e-05
0.00110843
5.69151e-05
0.00116158
7.57919e-05
0.00122402
0.00127742
4.73044e-05
6.12056e-05
0.00104722
0.000114862
0.00110792
0.000178532
0.00116035
0.0012346
0.00022135
8.56987e-05
0.000961525
0.000169757
0.00102386
0.000270982
0.00105913
0.00112668
0.000378906
9.99728e-05
0.000861552
0.000201615
0.000922223
0.000321845
0.000938899
0.00098442
0.0004641
0.000103015
0.000758537
0.000207085
0.000818153
0.000325629
0.000820356
0.000836489
0.000473559
9.81787e-05
0.000660358
0.000195063
0.000721268
0.00029733
0.000718089
0.000709102
0.000424718
9.01874e-05
0.000570171
0.000176245
0.000635211
0.000259827
0.000634506
0.000612575
0.000356355
8.18897e-05
0.000488282
0.0001567
0.000560401
0.000226173
0.000565033
0.000539256
0.000299493
7.09219e-05
0.00041736
0.000135642
0.000495681
0.000196054
0.000504622
0.000479706
0.000255605
5.54775e-05
0.000361882
0.000111332
0.000439827
0.000165562
0.000450391
0.000428258
0.000217011
3.98428e-05
0.000322039
8.71703e-05
0.000392499
0.000135421
0.000402141
0.000383408
0.00018027
2.88473e-05
0.000293192
6.80197e-05
0.000353327
0.00010938
0.000360781
0.000345322
0.000147466
2.28332e-05
0.000270359
5.4853e-05
0.000321307
8.90934e-05
0.000326541
0.000313769
0.000120646
1.95383e-05
0.00025082
4.57119e-05
0.000295133
7.36371e-05
0.000298616
0.000287879
9.9528e-05
1.71123e-05
0.000233708
3.86738e-05
0.000273572
6.15091e-05
0.00027578
0.000266609
8.27789e-05
1.48999e-05
0.000218808
3.28264e-05
0.000255646
5.16609e-05
0.000256946
0.000249059
6.92109e-05
1.28448e-05
0.000205963
2.78486e-05
0.000240642
4.34857e-05
0.000241309
0.000234523
5.80216e-05
1.09866e-05
0.000194977
2.35859e-05
0.000228042
3.66062e-05
0.000228288
0.000222455
4.86745e-05
9.33453e-06
0.000185642
1.9918e-05
0.000217459
3.07602e-05
0.000217446
0.00021243
4.07852e-05
7.87666e-06
0.000177765
1.67457e-05
0.00020859
2.57532e-05
0.000208439
0.000204117
3.40657e-05
6.59417e-06
0.000171171
1.39889e-05
0.000201195
2.14365e-05
0.000200991
0.000197257
2.82968e-05
5.46691e-06
0.000165704
1.15831e-05
0.000195079
1.76944e-05
0.00019488
0.000191641
2.33103e-05
4.4755e-06
0.000161229
9.47637e-06
0.000190078
1.44351e-05
0.000189921
0.000187101
1.89754e-05
3.6024e-06
0.000157626
7.62592e-06
0.000186055
1.15858e-05
0.000185961
0.000183496
1.51903e-05
2.83254e-06
0.000154794
5.99717e-06
0.00018289
9.08774e-06
0.000182871
0.00018071
1.18745e-05
2.15252e-06
0.000152641
4.56125e-06
0.000180481
6.89367e-06
0.000180538
0.000178639
8.96428e-06
1.55172e-06
0.00015109
3.29574e-06
0.000178737
4.96667e-06
0.000178867
0.000177196
6.40926e-06
1.01191e-06
0.000150078
2.17836e-06
0.000177571
3.27614e-06
0.000177769
0.000176303
4.16922e-06
5.56704e-07
0.000149521
1.22168e-06
0.000176906
1.811e-06
0.00017718
0.0001759
2.21432e-06
1.6311e-07
0.000149358
3.89629e-07
0.000176679
5.32463e-07
0.000177037
0.000175929
5.0361e-07
-1.99437e-07
0.000149557
-3.61916e-07
0.000176842
-6.03667e-07
0.000177279
0.000176326
-1.00075e-06
-5.17323e-07
0.000150075
-1.02007e-06
0.000177345
-1.59459e-06
0.000177854
0.000177039
-2.30783e-06
-7.83944e-07
0.000150858
-1.57727e-06
0.000178138
-2.43791e-06
0.000178714
0.000178025
-3.42429e-06
-1.0089e-06
0.000151867
-2.04803e-06
0.000179177
-3.15053e-06
0.000179817
0.000179242
-4.36739e-06
-1.1977e-06
0.000153065
-2.44281e-06
0.000180422
-3.7474e-06
0.000181121
0.000180651
-5.15594e-06
-1.35394e-06
0.000154419
-2.76918e-06
0.000181837
-4.23991e-06
0.000182592
0.000182216
-5.80497e-06
-1.48058e-06
0.0001559
-3.03354e-06
0.00018339
-4.63798e-06
0.000184196
0.000183906
-6.3277e-06
-1.58042e-06
0.00015748
-3.24182e-06
0.000185052
-4.95075e-06
0.000185905
0.000185691
-6.73652e-06
-1.65611e-06
0.000159136
-3.39965e-06
0.000186795
-5.18694e-06
0.000187693
0.000187548
-7.04312e-06
-1.71017e-06
0.000160846
-3.51245e-06
0.000188598
-5.35477e-06
0.000189535
0.000189451
-7.25824e-06
-1.74493e-06
0.000162591
-3.58516e-06
0.000190438
-5.46159e-06
0.000191411
0.000191381
-7.39186e-06
-1.76257e-06
0.000164354
-3.62226e-06
0.000192297
-5.51432e-06
0.000193304
0.00019332
-7.45352e-06
-1.76523e-06
0.000166119
-3.62807e-06
0.00019416
-5.51978e-06
0.000195195
0.000195253
-7.45239e-06
-1.75489e-06
0.000167874
-3.60681e-06
0.000196012
-5.48447e-06
0.000197073
0.000197166
-7.3972e-06
-1.73338e-06
0.000169607
-3.56248e-06
0.000197841
-5.41436e-06
0.000198925
0.000199047
-7.29594e-06
-1.70239e-06
0.00017131
-3.49866e-06
0.000199638
-5.3148e-06
0.000200741
0.000200888
-7.15578e-06
-1.66347e-06
0.000172973
-3.41854e-06
0.000201393
-5.19072e-06
0.000202513
0.000202681
-6.98331e-06
-1.61809e-06
0.000174591
-3.32502e-06
0.0002031
-5.04658e-06
0.000204235
0.000204419
-6.7845e-06
-1.5675e-06
0.000176159
-3.22078e-06
0.000204753
-4.88641e-06
0.0002059
0.000206097
-6.56476e-06
-1.51288e-06
0.000177671
-3.10821e-06
0.000206348
-4.71385e-06
0.000207506
0.000207712
-6.32897e-06
-1.45523e-06
0.000179127
-2.98944e-06
0.000207882
-4.53213e-06
0.000209049
0.000209262
-6.08141e-06
-1.39547e-06
0.000180522
-2.86637e-06
0.000209353
-4.34408e-06
0.000210526
0.000210743
-5.82589e-06
-1.3344e-06
0.000181857
-2.74064e-06
0.00021076
-4.15221e-06
0.000211938
0.000212157
-5.5657e-06
-1.27271e-06
0.000183129
-2.61369e-06
0.0002121
-3.95866e-06
0.000213283
0.000213502
-5.3037e-06
-1.21101e-06
0.00018434
-2.48673e-06
0.000213376
-3.76528e-06
0.000214561
0.000214779
-5.04235e-06
-1.1498e-06
0.00018549
-2.36079e-06
0.000214587
-3.57365e-06
0.000215774
0.000215989
-4.78368e-06
-1.0895e-06
0.00018658
-2.23677e-06
0.000215734
-3.38506e-06
0.000216923
0.000217133
-4.52942e-06
-1.03047e-06
0.00018761
-2.11538e-06
0.000216819
-3.20058e-06
0.000218008
0.000218214
-4.28099e-06
-9.72978e-07
0.000188583
-1.99719e-06
0.000217844
-3.02109e-06
0.000219032
0.000219232
-4.0395e-06
-9.17267e-07
0.0001895
-1.88267e-06
0.000218809
-2.84727e-06
0.000219996
0.000220191
-3.80584e-06
-8.63499e-07
0.000190364
-1.77219e-06
0.000219718
-2.67965e-06
0.000220904
0.000221092
-3.58068e-06
-8.11803e-07
0.000191175
-1.66599e-06
0.000220572
-2.5186e-06
0.000221756
0.000221938
-3.3645e-06
-7.62276e-07
0.000191938
-1.56425e-06
0.000221374
-2.36439e-06
0.000222556
0.000222731
-3.15764e-06
-7.14972e-07
0.000192653
-1.46708e-06
0.000222126
-2.21717e-06
0.000223307
0.000223474
-2.96027e-06
-6.69908e-07
0.000193323
-1.37453e-06
0.000222831
-2.077e-06
0.000224009
0.00022417
-2.77247e-06
-6.27083e-07
0.00019395
-1.28662e-06
0.00022349
-1.94388e-06
0.000224666
0.00022482
-2.59421e-06
-5.86491e-07
0.000194536
-1.20329e-06
0.000224107
-1.81775e-06
0.000225281
0.000225428
-2.42538e-06
-5.48093e-07
0.000195084
-1.12447e-06
0.000224683
-1.69847e-06
0.000225855
0.000225995
-2.2658e-06
-5.11835e-07
0.000195596
-1.05006e-06
0.000225221
-1.5859e-06
0.000226391
0.000226524
-2.11526e-06
-4.77666e-07
0.000196074
-9.79939e-07
0.000225724
-1.47984e-06
0.00022689
0.000227018
-1.97348e-06
-4.45515e-07
0.000196519
-9.13974e-07
0.000226192
-1.38008e-06
0.000227357
0.000227478
-1.84015e-06
-4.1531e-07
0.000196935
-8.51993e-07
0.000226629
-1.28638e-06
0.000227791
0.000227907
-1.71497e-06
-3.86975e-07
0.000197321
-7.93844e-07
0.000227036
-1.1985e-06
0.000228196
0.000228306
-1.5976e-06
-3.60413e-07
0.000197682
-7.39364e-07
0.000227415
-1.11618e-06
0.000228572
0.000228677
-1.48768e-06
-3.35561e-07
0.000198017
-6.88391e-07
0.000227768
-1.03916e-06
0.000228923
0.000229023
-1.38487e-06
-3.12324e-07
0.00019833
-6.40761e-07
0.000228096
-9.67182e-07
0.00022925
0.000229344
-1.28881e-06
-2.90638e-07
0.00019862
-5.96272e-07
0.000228402
-8.99995e-07
0.000229553
0.000229644
-1.19917e-06
-2.70407e-07
0.000198891
-5.54784e-07
0.000228686
-8.37342e-07
0.000229836
0.000229922
-1.11559e-06
-2.5155e-07
0.000199142
-5.1613e-07
0.000228951
-7.78973e-07
0.000230099
0.000230181
-1.03775e-06
-2.34e-07
0.000199376
-4.80156e-07
0.000229197
-7.24656e-07
0.000230343
0.000230421
-9.65312e-07
-2.17684e-07
0.000199594
-4.4671e-07
0.000229426
-6.74157e-07
0.000230571
0.000230645
-8.97984e-07
-2.02527e-07
0.000199797
-4.15641e-07
0.000229639
-6.27257e-07
0.000230782
0.000230853
-8.35453e-07
-1.88464e-07
0.000199985
-3.86809e-07
0.000229837
-5.83738e-07
0.000230979
0.000231047
-7.77455e-07
-1.75424e-07
0.00020016
-3.6008e-07
0.000230022
-5.43406e-07
0.000231163
0.000231227
-7.23699e-07
-1.63348e-07
0.000200324
-3.35336e-07
0.000230194
-5.06062e-07
0.000231333
0.000231395
-6.73937e-07
-1.5218e-07
0.000200476
-3.12457e-07
0.000230354
-4.71532e-07
0.000231492
0.000231552
-6.27929e-07
-1.41863e-07
0.000200618
-2.9132e-07
0.000230504
-4.39641e-07
0.000231641
0.000231697
-5.85445e-07
-1.32347e-07
0.00020075
-2.71826e-07
0.000230643
-4.10236e-07
0.000231779
0.000231833
-5.46271e-07
-1.23583e-07
0.000200874
-2.53879e-07
0.000230773
-3.83162e-07
0.000231908
0.00023196
-5.10208e-07
-1.15523e-07
0.000200989
-2.37385e-07
0.000230895
-3.58279e-07
0.000232029
0.000232079
-4.77069e-07
-1.0813e-07
0.000201097
-2.22261e-07
0.000231009
-3.35458e-07
0.000232142
0.00023219
-4.46673e-07
-1.0137e-07
0.000201199
-2.0841e-07
0.000231116
-3.14575e-07
0.000232249
0.000232295
-4.18875e-07
-9.51959e-08
0.000201294
-1.9578e-07
0.000231217
-2.95527e-07
0.000232348
0.000232393
-3.93512e-07
-8.95831e-08
0.000201383
-1.84288e-07
0.000231312
-2.78208e-07
0.000232442
0.000232485
-3.70449e-07
-8.44874e-08
0.000201468
-1.7389e-07
0.000231401
-2.62519e-07
0.000232531
0.000232572
-3.49563e-07
-7.9898e-08
0.000201548
-1.64511e-07
0.000231486
-2.48378e-07
0.000232615
0.000232654
-3.30737e-07
-7.57809e-08
0.000201624
-1.56106e-07
0.000231566
-2.35709e-07
0.000232694
0.000232733
-3.13877e-07
-7.21183e-08
0.000201696
-1.48626e-07
0.000231643
-2.24444e-07
0.00023277
0.000232807
-2.98884e-07
-6.88867e-08
0.000201765
-1.42041e-07
0.000231716
-2.14518e-07
0.000232843
0.000232878
-2.85671e-07
-6.60684e-08
0.000201831
-1.36303e-07
0.000231786
-2.05878e-07
0.000232912
0.000232946
-2.74174e-07
-6.36457e-08
0.000201894
-1.31387e-07
0.000231854
-1.98473e-07
0.000232979
0.000233012
-2.64324e-07
-6.1609e-08
0.000201956
-1.27268e-07
0.000231919
-1.92261e-07
0.000233044
0.000233076
-2.56063e-07
-5.99509e-08
0.000202016
-1.2391e-07
0.000231983
-1.87217e-07
0.000233108
0.000233138
-2.49351e-07
-5.86557e-08
0.000202074
-1.21311e-07
0.000232046
-1.83306e-07
0.00023317
0.000233199
-2.44151e-07
-5.7723e-08
0.000202132
-1.19446e-07
0.000232108
-1.80514e-07
0.000233231
0.000233259
-2.40444e-07
-5.71403e-08
0.000202189
-1.18317e-07
0.000232169
-1.78822e-07
0.000233291
0.000233318
-2.38204e-07
-5.69108e-08
0.000202246
-1.17912e-07
0.00023223
-1.78226e-07
0.000233351
0.000233378
-2.37412e-07
-5.70273e-08
0.000202303
-1.18234e-07
0.000232291
-1.7872e-07
0.000233412
0.000233437
-2.38082e-07
-5.75054e-08
0.000202361
-1.19274e-07
0.000232353
-1.80315e-07
0.000233473
0.000233497
-2.40218e-07
-5.8336e-08
0.000202419
-1.2106e-07
0.000232416
-1.8302e-07
0.000233535
0.000233558
-2.43829e-07
-5.95266e-08
0.000202479
-1.2359e-07
0.00023248
-1.86864e-07
0.000233598
0.00023362
-2.48944e-07
-6.10907e-08
0.00020254
-1.26884e-07
0.000232545
-1.91857e-07
0.000233663
0.000233684
-2.55606e-07
-6.30278e-08
0.000202603
-1.30977e-07
0.000232613
-1.98041e-07
0.00023373
0.000233749
-2.63849e-07
-6.53647e-08
0.000202668
-1.35875e-07
0.000232684
-2.05459e-07
0.0002338
0.000233818
-2.73728e-07
-6.81066e-08
0.000202736
-1.41624e-07
0.000232757
-2.14149e-07
0.000233872
0.000233889
-2.85314e-07
-7.12816e-08
0.000202807
-1.48254e-07
0.000232834
-2.24179e-07
0.000233948
0.000233963
-2.98678e-07
-7.49042e-08
0.000202882
-1.55813e-07
0.000232915
-2.35614e-07
0.000234028
0.000234042
-3.13904e-07
-7.90002e-08
0.000202961
-1.64351e-07
0.000233001
-2.48523e-07
0.000234112
0.000234124
-3.31097e-07
-8.35913e-08
0.000203045
-1.73921e-07
0.000233091
-2.62987e-07
0.000234201
0.000234212
-3.50367e-07
-8.87084e-08
0.000203134
-1.84588e-07
0.000233187
-2.79103e-07
0.000234296
0.000234304
-3.71832e-07
-9.43832e-08
0.000203228
-1.96417e-07
0.000233289
-2.96975e-07
0.000234396
0.000234403
-3.95633e-07
-1.00659e-07
0.000203329
-2.09481e-07
0.000233398
-3.16725e-07
0.000234504
0.000234508
-4.21937e-07
-1.07574e-07
0.000203436
-2.23876e-07
0.000233514
-3.38472e-07
0.000234618
0.000234621
-4.50895e-07
-1.15174e-07
0.000203551
-2.39685e-07
0.000233638
-3.62369e-07
0.000234741
0.000234741
-4.82714e-07
-1.23509e-07
0.000203675
-2.57022e-07
0.000233772
-3.88561e-07
0.000234872
0.00023487
-5.17583e-07
-1.32632e-07
0.000203807
-2.7599e-07
0.000233915
-4.17222e-07
0.000235014
0.000235008
-5.55743e-07
-1.426e-07
0.00020395
-2.96729e-07
0.000234069
-4.48538e-07
0.000235166
0.000235157
-5.97443e-07
-1.53488e-07
0.000204103
-3.19357e-07
0.000234235
-4.82724e-07
0.000235329
0.000235318
-6.42948e-07
-1.65363e-07
0.000204269
-3.44034e-07
0.000234414
-5.19992e-07
0.000235505
0.00023549
-6.92564e-07
-1.78302e-07
0.000204447
-3.70924e-07
0.000234607
-5.60602e-07
0.000235695
0.000235676
-7.46616e-07
-1.92403e-07
0.00020464
-4.00199e-07
0.000234814
-6.04816e-07
0.000235899
0.000235877
-8.05465e-07
-2.07748e-07
0.000204847
-4.32064e-07
0.000235039
-6.52929e-07
0.00023612
0.000236093
-8.69499e-07
-2.2444e-07
0.000205072
-4.6673e-07
0.000235281
-7.0527e-07
0.000236359
0.000236327
-9.39161e-07
-2.42599e-07
0.000205314
-5.04434e-07
0.000235543
-7.62193e-07
0.000236616
0.00023658
-1.01491e-06
-2.62343e-07
0.000205577
-5.45432e-07
0.000235826
-8.2408e-07
0.000236895
0.000236853
-1.09726e-06
-2.83824e-07
0.00020586
-5.90006e-07
0.000236132
-8.91358e-07
0.000237196
0.000237149
-1.18678e-06
-3.07176e-07
0.000206168
-6.38463e-07
0.000236463
-9.64493e-07
0.000237522
0.000237468
-1.28407e-06
-3.32573e-07
0.0002065
-6.91141e-07
0.000236822
-1.04399e-06
0.000237875
0.000237814
-1.38981e-06
-3.60191e-07
0.00020686
-7.48414e-07
0.00023721
-1.1304e-06
0.000238257
0.000238188
-1.50474e-06
-3.90221e-07
0.000207251
-8.1068e-07
0.000237631
-1.22433e-06
0.000238671
0.000238594
-1.62967e-06
-4.22888e-07
0.000207673
-8.78389e-07
0.000238086
-1.32647e-06
0.000239119
0.000239033
-1.76549e-06
-4.5843e-07
0.000208132
-9.5204e-07
0.00023858
-1.43754e-06
0.000239604
0.000239508
-1.91316e-06
-4.9711e-07
0.000208629
-1.03216e-06
0.000239115
-1.55835e-06
0.000240131
0.000240024
-2.07376e-06
-5.39219e-07
0.000209168
-1.11935e-06
0.000239695
-1.6898e-06
0.000240701
0.000240582
-2.24847e-06
-5.85067e-07
0.000209753
-1.21427e-06
0.000240324
-1.83286e-06
0.00024132
0.000241188
-2.43857e-06
-6.3502e-07
0.000210388
-1.31762e-06
0.000241007
-1.98861e-06
0.000241991
0.000241845
-2.64551e-06
-6.89454e-07
0.000211078
-1.43023e-06
0.000241748
-2.15826e-06
0.000242719
0.000242558
-2.87085e-06
-7.48817e-07
0.000211826
-1.55296e-06
0.000242552
-2.34311e-06
0.000243509
0.000243331
-3.11633e-06
-8.13579e-07
0.00021264
-1.6868e-06
0.000243425
-2.54463e-06
0.000244367
0.00024417
-3.38389e-06
-8.84285e-07
0.000213524
-1.83283e-06
0.000244373
-2.76446e-06
0.000245298
0.000245081
-3.67568e-06
-9.61528e-07
0.000214486
-1.99228e-06
0.000245404
-3.00438e-06
0.00024631
0.000246071
-3.99406e-06
-1.04598e-06
0.000215532
-2.16649e-06
0.000246525
-3.26643e-06
0.00024741
0.000247146
-4.34166e-06
-1.13838e-06
0.00021667
-2.35696e-06
0.000247743
-3.55284e-06
0.000248606
0.000248315
-4.72145e-06
-1.23955e-06
0.00021791
-2.56538e-06
0.000249069
-3.86611e-06
0.000249907
0.000249585
-5.13671e-06
-1.35044e-06
0.00021926
-2.79366e-06
0.000250512
-4.20906e-06
0.000251322
0.000250967
-5.59112e-06
-1.4721e-06
0.000220732
-3.04391e-06
0.000252084
-4.58483e-06
0.000252863
0.000252471
-6.08881e-06
-1.60573e-06
0.000222338
-3.31852e-06
0.000253797
-4.99699e-06
0.000254542
0.000254109
-6.63444e-06
-1.75267e-06
0.000224091
-3.62022e-06
0.000255664
-5.44954e-06
0.000256371
0.000255893
-7.23323e-06
-1.91447e-06
0.000226005
-3.95209e-06
0.000257702
-5.94704e-06
0.000258366
0.000257837
-7.89111e-06
-2.09289e-06
0.000228098
-4.31764e-06
0.000259927
-6.49464e-06
0.000260543
0.000259957
-8.61481e-06
-2.28993e-06
0.000230388
-4.72084e-06
0.000262358
-7.09821e-06
0.00026292
0.000262271
-9.41194e-06
-2.50788e-06
0.000232896
-5.16626e-06
0.000265016
-7.76447e-06
0.000265518
0.000264797
-1.02912e-05
-2.7494e-06
0.000235645
-5.65915e-06
0.000267926
-8.5011e-06
0.00026836
0.000267559
-1.12626e-05
-3.01754e-06
0.000238663
-6.20556e-06
0.000271114
-9.31696e-06
0.000271472
0.000270579
-1.23375e-05
-3.31584e-06
0.000241978
-6.81249e-06
0.000274611
-1.02223e-05
0.000274882
0.000273886
-1.35292e-05
-3.64847e-06
0.000245627
-7.48809e-06
0.00027845
-1.12289e-05
0.000278622
0.00027751
-1.48529e-05
-4.02027e-06
0.000249647
-8.24186e-06
0.000282672
-1.23507e-05
0.000282731
0.000281486
-1.63263e-05
-4.43695e-06
0.000254084
-9.08496e-06
0.00028732
-1.36039e-05
0.00028725
0.000285852
-1.79702e-05
-4.90528e-06
0.000258989
-1.00305e-05
0.000292445
-1.50074e-05
0.000292227
0.000290653
-1.98088e-05
-5.43326e-06
0.000264423
-1.10942e-05
0.000298106
-1.65838e-05
0.000297717
0.00029594
-2.18708e-05
-6.03052e-06
0.000270453
-1.22945e-05
0.00030437
-1.83598e-05
0.000303782
0.000301771
-2.41901e-05
-6.7086e-06
0.000277162
-1.36537e-05
0.000311315
-2.03674e-05
0.000310496
0.00030821
-2.68071e-05
-7.48147e-06
0.000284643
-1.51987e-05
0.000319032
-2.2645e-05
0.000317942
0.000315335
-2.977e-05
-8.36617e-06
0.000293009
-1.69621e-05
0.000327628
-2.52391e-05
0.000326219
0.000323233
-3.31372e-05
-9.3836e-06
0.000302393
-1.89839e-05
0.000337229
-2.82065e-05
0.000335442
0.000332006
-3.69794e-05
-1.05596e-05
0.000312953
-2.13133e-05
0.000347982
-3.1617e-05
0.000345745
0.000341772
-4.13829e-05
-1.19265e-05
0.000324879
-2.40115e-05
0.000360067
-3.55567e-05
0.00035729
0.00035267
-4.64541e-05
-1.35252e-05
0.000338404
-2.71554e-05
0.000373698
-4.01333e-05
0.000370268
0.000364861
-5.23247e-05
-1.54066e-05
0.000353811
-3.08423e-05
0.000389133
-4.54827e-05
0.000384908
0.000378538
-5.91596e-05
-1.76392e-05
0.00037145
-3.51973e-05
0.000406691
-5.17777e-05
0.000401489
0.000393927
-6.71669e-05
-2.03035e-05
0.000391753
-4.0381e-05
0.000426769
-5.9241e-05
0.000420349
0.000411298
-7.66113e-05
-2.3528e-05
0.000415281
-4.66073e-05
0.000449848
-6.81616e-05
0.000441903
0.000430971
-8.78345e-05
-2.74315e-05
0.000442713
-5.41548e-05
0.000476572
-7.89231e-05
0.000466671
0.000453325
-0.000101278
-3.22827e-05
0.000474995
-6.34089e-05
0.000507698
-9.20314e-05
0.000495294
0.000478823
-0.000117529
-3.82656e-05
0.000513261
-7.48881e-05
0.00054432
-0.000108185
0.000528591
0.000507993
-0.000137355
-4.59108e-05
0.000559172
-8.93208e-05
0.00058773
-0.000128325
0.000567595
0.000541481
-0.000161813
-5.56476e-05
0.00061482
-0.000107754
0.000639837
-0.000153795
0.000613636
0.000579999
-0.000192314
-6.84183e-05
0.000683238
-0.000131663
0.000703082
-0.000186478
0.000668451
0.000624368
-0.000230847
-8.54697e-05
0.000768708
-0.000163344
0.000780956
-0.000229127
0.000734233
0.000675388
-0.000280146
-0.000108296
0.000877003
-0.000205895
0.000878555
-0.000285869
0.000814207
0.000733757
-0.000344238
-0.000140882
0.00101789
-0.000264975
0.00100265
-0.000362676
0.000911908
0.000799657
-0.000428577
-0.000184496
0.00120238
-0.000346754
0.00116491
-0.000470156
0.00103531
0.000872251
-0.000542749
-0.000245708
0.00144809
-0.000463276
0.00138247
-0.000620795
0.00119283
0.000948339
-0.000696883
-0.000348681
0.00179677
-0.000638239
0.00167203
-0.000851171
0.00140576
0.00102613
-0.000928963
-0.000402359
0.00219913
-0.000807177
0.00207685
-0.0011468
0.00174538
0.00112307
-0.00124373
-0.000770075
-0.00140796
-0.00178928
-0.00195752
0.00016009
-0.000176137
0.000326573
-0.000218451
0.000493142
-0.000234808
0.000657861
-0.000212779
0.000822282
-0.000117117
0.00092927
0.000114361
0.000932188
0.000375987
0.000864628
0.00053166
0.000761191
0.000576996
0.0006497
0.000536211
0.000557295
0.000448761
0.000487644
0.000369144
0.000432533
0.000310716
0.000387152
0.000262392
0.000349371
0.000218051
0.000317976
0.000178861
0.000291908
0.000146714
0.000270261
0.000121176
0.000252269
0.000100771
0.000237278
8.42017e-05
0.00022475
7.05493e-05
0.000214265
5.91598e-05
0.000205499
4.95513e-05
0.000198199
4.13654e-05
0.000192164
3.43315e-05
0.00018723
2.82445e-05
0.00018326
2.29459e-05
0.000180137
1.83127e-05
0.000177764
1.42482e-05
0.000176052
1.06761e-05
0.000174925
7.53598e-06
0.000174315
4.77884e-06
0.000174167
2.36318e-06
0.000174423
2.47048e-07
0.000175026
-1.60341e-06
0.000175925
-3.2075e-06
0.000177081
-4.57943e-06
0.000178451
-5.73803e-06
0.000179999
-6.7042e-06
0.000181691
-7.49665e-06
0.000183495
-8.13192e-06
0.000185384
-8.62536e-06
0.000187332
-8.99125e-06
0.000189317
-9.2431e-06
0.000191319
-9.3937e-06
0.000193321
-9.45518e-06
0.000195307
-9.43912e-06
0.000197267
-9.35637e-06
0.000199187
-9.21677e-06
0.000201061
-9.02936e-06
0.00020288
-8.80244e-06
0.000204639
-8.54353e-06
0.000206334
-8.25937e-06
0.000207961
-7.95601e-06
0.000209518
-7.63881e-06
0.000211005
-7.31249e-06
0.00021242
-6.98111e-06
0.000213765
-6.64822e-06
0.000215039
-6.31679e-06
0.000216245
-5.98936e-06
0.000217383
-5.66801e-06
0.000218457
-5.35446e-06
0.000219467
-5.05006e-06
0.000220417
-4.75588e-06
0.000221309
-4.47269e-06
0.000222146
-4.20107e-06
0.00022293
-3.94137e-06
0.000223663
-3.69379e-06
0.000224349
-3.45837e-06
0.00022499
-3.23506e-06
0.000225588
-3.02371e-06
0.000226147
-2.82405e-06
0.000226667
-2.63579e-06
0.000227152
-2.45856e-06
0.000227604
-2.292e-06
0.000228025
-2.13568e-06
0.000228416
-1.98916e-06
0.000228781
-1.852e-06
0.00022912
-1.72374e-06
0.000229435
-1.60395e-06
0.000229728
-1.49219e-06
0.00023
-1.38802e-06
0.000230253
-1.29102e-06
0.000230489
-1.20078e-06
0.000230708
-1.11692e-06
0.000230911
-1.03906e-06
0.000231101
-9.66844e-07
0.000231277
-8.99926e-07
0.000231441
-8.37991e-07
0.000231594
-7.80736e-07
0.000231736
-7.27873e-07
0.000231869
-6.79138e-07
0.000231993
-6.34278e-07
0.000232109
-5.93052e-07
0.000232218
-5.55255e-07
0.00023232
-5.20675e-07
0.000232415
-4.89134e-07
0.000232505
-4.6046e-07
0.00023259
-4.34497e-07
0.000232671
-4.11099e-07
0.000232747
-3.90138e-07
0.000232819
-3.71497e-07
0.000232889
-3.55083e-07
0.000232955
-3.4079e-07
0.00023302
-3.28548e-07
0.000233082
-3.18284e-07
0.000233143
-3.09951e-07
0.000233202
-3.03493e-07
0.00023326
-2.98884e-07
0.000233318
-2.96092e-07
0.000233376
-2.95123e-07
0.000233434
-2.95959e-07
0.000233492
-2.98613e-07
0.000233551
-3.03109e-07
0.000233612
-3.09475e-07
0.000233674
-3.17755e-07
0.000233738
-3.28004e-07
0.000233805
-3.40287e-07
0.000233874
-3.54687e-07
0.000233947
-3.71293e-07
0.000234023
-3.90221e-07
0.000234104
-4.1159e-07
0.000234189
-4.35534e-07
0.000234279
-4.62213e-07
0.000234375
-4.91798e-07
0.000234478
-5.24477e-07
0.000234587
-5.60469e-07
0.000234705
-5.99997e-07
0.00023483
-6.43328e-07
0.000234965
-6.9074e-07
0.000235111
-7.42537e-07
0.000235267
-7.9907e-07
0.000235435
-8.60708e-07
0.000235616
-9.27847e-07
0.000235812
-1.00094e-06
0.000236022
-1.08047e-06
0.00023625
-1.16699e-06
0.000236496
-1.26105e-06
0.000236762
-1.3633e-06
0.00023705
-1.47444e-06
0.000237361
-1.59522e-06
0.000237698
-1.72647e-06
0.000238062
-1.86912e-06
0.000238457
-2.02416e-06
0.000238884
-2.19268e-06
0.000239347
-2.37588e-06
0.000239848
-2.57509e-06
0.000240391
-2.79176e-06
0.00024098
-3.02749e-06
0.000241619
-3.28403e-06
0.000242311
-3.56332e-06
0.000243062
-3.86751e-06
0.000243878
-4.19897e-06
0.000244762
-4.56033e-06
0.000245723
-4.9545e-06
0.000246766
-5.38473e-06
0.000247899
-5.8546e-06
0.00024913
-6.36816e-06
0.000250469
-6.92989e-06
0.000251925
-7.54485e-06
0.000253509
-8.21868e-06
0.000255234
-8.95777e-06
0.000257112
-9.7693e-06
0.000259159
-1.06614e-05
0.00026139
-1.16434e-05
0.000263824
-1.27256e-05
0.000266482
-1.39202e-05
0.000269386
-1.52409e-05
0.00027256
-1.67036e-05
0.000276033
-1.83264e-05
0.000279838
-2.01305e-05
0.000284008
-2.21406e-05
0.000288585
-2.43855e-05
0.000293613
-2.68988e-05
0.000299143
-2.97205e-05
0.000305234
-3.28977e-05
0.00031195
-3.64868e-05
0.000319368
-4.05552e-05
0.000327573
-4.51842e-05
0.000336663
-5.04725e-05
0.000346749
-5.65406e-05
0.000357961
-6.35364e-05
0.000370445
-7.16435e-05
0.000384368
-8.10905e-05
0.000399922
-9.21651e-05
0.000417319
-0.000105232
0.000436797
-0.000120756
0.000458606
-0.000139338
0.00048301
-0.000161759
0.000510231
-0.000189033
0.000540435
-0.000222518
0.000573576
-0.000263989
0.000609272
-0.000315842
0.000646304
-0.00038127
0.000682263
-0.000464535
0.000710906
-0.000571392
0.000722726
-0.000708704
0.000680408
-0.000886645
0.000541621
-0.00110495
-0.0014159
0.000108604
-0.000284742
0.00021897
-0.000328816
0.000328436
-0.000344275
0.000420462
-0.000304806
0.000497006
-0.00019366
0.000575471
3.5897e-05
0.000616568
0.000334889
0.000610614
0.000537613
0.000575856
0.000611755
0.000519632
0.000592433
0.0004595
0.000508893
0.000408091
0.000420554
0.000365935
0.000352872
0.000332491
0.000295836
0.000305905
0.000244637
0.000283892
0.000200875
0.000265084
0.000165521
0.000248917
0.000137343
0.000235054
0.000114634
0.00022319
9.60656e-05
0.00021306
8.06793e-05
0.000204445
6.7775e-05
0.000197162
5.68347e-05
0.000191056
4.74716e-05
0.000185995
3.93918e-05
0.000181868
3.23719e-05
0.000178575
2.62388e-05
0.00017603
2.0858e-05
0.000174154
1.61239e-05
0.000172878
1.19526e-05
0.000172136
8.27736e-06
0.000171872
5.04296e-06
0.000172034
2.20179e-06
0.000172568
-2.87876e-07
0.000173425
-2.4595e-06
0.000174555
-4.33772e-06
0.000175919
-5.94394e-06
0.000177481
-7.29988e-06
0.000179203
-8.42655e-06
0.000181053
-9.34621e-06
0.000183
-1.00786e-05
0.000185016
-1.06419e-05
0.000187078
-1.10533e-05
0.000189164
-1.1329e-05
0.000191255
-1.14845e-05
0.000193334
-1.15346e-05
0.000195388
-1.1493e-05
0.000197405
-1.13728e-05
0.000199374
-1.11857e-05
0.000201287
-1.09428e-05
0.000203139
-1.06539e-05
0.000204923
-1.03281e-05
0.000206637
-9.97341e-06
0.000208278
-9.5971e-06
0.000209845
-9.20554e-06
0.000211337
-8.80428e-06
0.000212754
-8.39817e-06
0.000214097
-7.99135e-06
0.000215367
-7.58732e-06
0.000216567
-7.18903e-06
0.000217698
-6.79888e-06
0.000218762
-6.41885e-06
0.000219763
-6.05047e-06
0.000220702
-5.69494e-06
0.000221582
-5.35314e-06
0.000222407
-5.02568e-06
0.000223178
-4.71293e-06
0.0002239
-4.41506e-06
0.000224573
-4.1321e-06
0.000225202
-3.86391e-06
0.000225789
-3.61026e-06
0.000226336
-3.37083e-06
0.000226845
-3.1452e-06
0.000227319
-2.93293e-06
0.000227761
-2.73354e-06
0.000228172
-2.5465e-06
0.000228554
-2.37128e-06
0.000228909
-2.20731e-06
0.00022924
-2.05406e-06
0.000229547
-1.91098e-06
0.000229832
-1.77754e-06
0.000230097
-1.65319e-06
0.000230344
-1.53744e-06
0.000230573
-1.4298e-06
0.000230785
-1.32978e-06
0.000230983
-1.23694e-06
0.000231167
-1.15085e-06
0.000231338
-1.0711e-06
0.000231498
-9.97286e-07
0.000231646
-9.29074e-07
0.000231784
-8.66111e-07
0.000231913
-8.08061e-07
0.000232034
-7.5463e-07
0.000232146
-7.05548e-07
0.000232251
-6.60545e-07
0.00023235
-6.19386e-07
0.000232443
-5.81844e-07
0.00023253
-5.47716e-07
0.000232612
-5.16808e-07
0.00023269
-4.88968e-07
0.000232764
-4.64029e-07
0.000232835
-4.41854e-07
0.000232902
-4.22319e-07
0.000232966
-4.05319e-07
0.000233028
-3.90751e-07
0.000233089
-3.78546e-07
0.000233147
-3.68629e-07
0.000233205
-3.60951e-07
0.000233261
-3.55466e-07
0.000233318
-3.52154e-07
0.000233373
-3.50998e-07
0.000233429
-3.51993e-07
0.000233486
-3.55151e-07
0.000233543
-3.60501e-07
0.000233602
-3.68071e-07
0.000233662
-3.77914e-07
0.000233724
-3.90099e-07
0.000233789
-4.04711e-07
0.000233856
-4.21834e-07
0.000233926
-4.41586e-07
0.000234
-4.64092e-07
0.000234078
-4.895e-07
0.00023416
-5.17972e-07
0.000234248
-5.49684e-07
0.000234341
-5.84853e-07
0.00023444
-6.23707e-07
0.000234546
-6.66494e-07
0.00023466
-7.13491e-07
0.000234781
-7.64995e-07
0.000234912
-8.21347e-07
0.000235052
-8.82916e-07
0.000235203
-9.50104e-07
0.000235366
-1.02335e-06
0.000235541
-1.10314e-06
0.00023573
-1.18999e-06
0.000235934
-1.2845e-06
0.000236155
-1.38727e-06
0.000236392
-1.49902e-06
0.00023665
-1.62048e-06
0.000236928
-1.75248e-06
0.000237228
-1.89592e-06
0.000237554
-2.05178e-06
0.000237906
-2.22114e-06
0.000238287
-2.40519e-06
0.000238699
-2.60521e-06
0.000239146
-2.82263e-06
0.00023963
-3.05901e-06
0.000240154
-3.31604e-06
0.000240722
-3.59563e-06
0.000241338
-3.89983e-06
0.000242006
-4.23093e-06
0.00024273
-4.59146e-06
0.000243515
-4.98419e-06
0.000244367
-5.4122e-06
0.000245291
-5.87892e-06
0.000246295
-6.38814e-06
0.000247384
-6.94407e-06
0.000248567
-7.55142e-06
0.000249853
-8.21542e-06
0.00025125
-8.94196e-06
0.000252769
-9.73761e-06
0.000254421
-1.06098e-05
0.000256218
-1.15668e-05
0.000258175
-1.2618e-05
0.000260306
-1.37742e-05
0.000262628
-1.50474e-05
0.000265159
-1.64514e-05
0.00026792
-1.8002e-05
0.000270933
-1.97171e-05
0.000274225
-2.16177e-05
0.000277822
-2.37278e-05
0.000281756
-2.6075e-05
0.000286063
-2.86919e-05
0.00029078
-3.16163e-05
0.000295952
-3.48925e-05
0.000301628
-3.85731e-05
0.000307861
-4.27199e-05
0.000314712
-4.74068e-05
0.000322251
-5.27223e-05
0.000330551
-5.87727e-05
0.000339697
-6.56866e-05
0.000349781
-7.36204e-05
0.000360903
-8.27657e-05
0.00037317
-9.33578e-05
0.000386694
-0.000105688
0.000401583
-0.00012012
0.000417933
-0.000137107
0.000435816
-0.00015722
0.000455235
-0.000181178
0.000476095
-0.000209893
0.000498088
-0.000244512
0.000520591
-0.000286492
0.000542387
-0.000337638
0.000561292
-0.000400175
0.000573494
-0.000476738