/*--------------------------------*- C++ -*----------------------------------*\
  =========                 |
  \\      /  F ield         | OpenFOAM: The Open Source CFD Toolbox
   \\    /   O peration     | Website:  https://openfoam.org
    \\  /    A nd           | Version:  dev
     \\/     M anipulation  |
\*---------------------------------------------------------------------------*/
FoamFile
{
    version     2.0;
    format      ascii;
    class       volVectorField;
    location    "12";
    object      U;
}
// * * * * * * * * * * * * * * * * * * * * * * * * * * * * * * * * * * * * * //

dimensions      [0 1 -1 0 0 0 0];

internalField   nonuniform List<vector> 
8000
(
(0.0997065 2.7225e-05 0)
(0.100148 -0.000325534 0)
(0.100312 -0.000918549 0)
(0.0996212 -4.18168e-05 0)
(0.0997658 9.6531e-05 0)
(0.100968 -0.000546378 0)
(0.102153 -0.00255114 0)
(0.0994308 -0.000336329 0)
(0.0998243 0.000363894 0)
(0.101952 0.000189907 0)
(0.104694 -0.00291062 0)
(0.100954 -0.000274815 0)
(0.0993718 0.000841492 0)
(0.102464 0.0021468 0)
(0.106923 -0.000806052 0)
(0.104782 0.00189003 0)
(0.0976302 0.00156653 0)
(0.101709 0.00513784 0)
(0.107274 0.00446603 0)
(0.109589 0.00813426 0)
(0.0937746 0.00259436 0)
(0.0987441 0.00849799 0)
(0.104065 0.0119911 0)
(0.110455 0.0180426 0)
(0.0874219 0.0038244 0)
(0.0928577 0.0111947 0)
(0.0968159 0.0187117 0)
(0.103985 0.0282488 0)
(0.0791164 0.0049224 0)
(0.0845287 0.0126097 0)
(0.0867402 0.02212 0)
(0.0919872 0.0343706 0)
(0.0698554 0.0055524 0)
(0.0750357 0.0127819 0)
(0.0756618 0.022336 0)
(0.0782602 0.0346614 0)
(0.0610273 0.0056205 0)
(0.0661469 0.0120651 0)
(0.0658919 0.0207571 0)
(0.0658741 0.031031 0)
(0.0529227 0.00540149 0)
(0.0582477 0.0109407 0)
(0.0579297 0.0186221 0)
(0.0562892 0.0265278 0)
(0.0454064 0.00510124 0)
(0.0512941 0.00978338 0)
(0.0514717 0.0165183 0)
(0.0492523 0.0227437 0)
(0.0386646 0.00445449 0)
(0.0452899 0.00848702 0)
(0.0459577 0.0143692 0)
(0.0437115 0.0196313 0)
(0.0331796 0.00332346 0)
(0.0401134 0.0068579 0)
(0.0410206 0.0119995 0)
(0.0389657 0.0166837 0)
(0.0291844 0.00215758 0)
(0.0356954 0.00519207 0)
(0.0365926 0.00964655 0)
(0.0348162 0.0137989 0)
(0.0263582 0.00137746 0)
(0.0319954 0.00394089 0)
(0.0327299 0.0076898 0)
(0.0312582 0.0112371 0)
(0.0242082 0.000991202 0)
(0.0289527 0.00318293 0)
(0.0294879 0.00623454 0)
(0.0282837 0.00917025 0)
(0.0224144 0.000815172 0)
(0.0264748 0.00271695 0)
(0.0268388 0.00515761 0)
(0.025837 0.00756191 0)
(0.0208475 0.00070434 0)
(0.024445 0.00236044 0)
(0.0246812 0.00431792 0)
(0.0238301 0.0062958 0)
(0.0194746 0.000606447 0)
(0.0227632 0.0020437 0)
(0.0229078 0.00363385 0)
(0.0221767 0.00527276 0)
(0.0182848 0.000516528 0)
(0.0213579 0.00175672 0)
(0.0214377 0.00306433 0)
(0.0208082 0.00442792 0)
(0.0172633 0.000437073 0)
(0.0201782 0.00150042 0)
(0.0202137 0.0025845 0)
(0.0196724 0.00371973 0)
(0.0163924 0.00036824 0)
(0.0191863 0.00127369 0)
(0.0191935 0.00217639 0)
(0.0187282 0.00311994 0)
(0.0156549 0.000308819 0)
(0.0183535 0.00107399 0)
(0.0183444 0.00182637 0)
(0.017944 0.00260779 0)
(0.0150347 0.000257394 0)
(0.0176569 0.000898445 0)
(0.0176402 0.00152398 0)
(0.0172947 0.00216745 0)
(0.0145178 0.000212686 0)
(0.0170781 0.000744282 0)
(0.0170597 0.00126109 0)
(0.0167607 0.00178662 0)
(0.0140918 0.000173617 0)
(0.0166018 0.000608873 0)
(0.0165859 0.00103143 0)
(0.0163259 0.00145556 0)
(0.0137457 0.000139313 0)
(0.0162152 0.000489832 0)
(0.0162042 0.000829979 0)
(0.0159773 0.00116659 0)
(0.0134701 0.000109081 0)
(0.0159075 0.000385092 0)
(0.0159025 0.000652782 0)
(0.0157039 0.000913615 0)
(0.0132567 8.23338e-05 0)
(0.015669 0.000292814 0)
(0.0156707 0.00049663 0)
(0.0154963 0.000691744 0)
(0.0130985 5.86282e-05 0)
(0.0154916 0.000211543 0)
(0.0154998 0.000359079 0)
(0.0153464 0.000497109 0)
(0.0129884 3.67027e-05 0)
(0.0153675 0.000139517 0)
(0.015382 0.000237967 0)
(0.0152471 0.000326607 0)
(0.0129234 1.92298e-05 0)
(0.0152905 7.84994e-05 0)
(0.0153107 0.000133358 0)
(0.0151924 0.000178263 0)
(0.012893 4.2621e-06 0)
(0.0152527 2.53799e-05 0)
(0.0152798 4.21951e-05 0)
(0.015177 4.8746e-05 0)
(0.0128943 -1.03986e-05 0)
(0.0152503 -2.3118e-05 0)
(0.0152849 -3.94786e-05 0)
(0.0151964 -6.56979e-05 0)
(0.0129264 -2.33596e-05 0)
(0.0152802 -6.55069e-05 0)
(0.0153213 -0.000110876 0)
(0.0152454 -0.000165383 0)
(0.0129835 -3.4033e-05 0)
(0.015337 -0.000101211 0)
(0.015384 -0.000171483 0)
(0.0153194 -0.000250294 0)
(0.0130614 -4.30258e-05 0)
(0.0154167 -0.000131361 0)
(0.0154694 -0.000222732 0)
(0.0154151 -0.000322015 0)
(0.0131571 -5.05781e-05 0)
(0.0155159 -0.000156656 0)
(0.0155738 -0.000265687 0)
(0.015529 -0.000382077 0)
(0.0132677 -5.68307e-05 0)
(0.0156313 -0.000177585 0)
(0.0156941 -0.000301166 0)
(0.0156578 -0.000431596 0)
(0.0133904 -6.18989e-05 0)
(0.0157598 -0.00019455 0)
(0.0158273 -0.000329883 0)
(0.0157987 -0.000471564 0)
(0.0135229 -6.58918e-05 0)
(0.0158989 -0.000207927 0)
(0.0159707 -0.000352489 0)
(0.0159491 -0.000502911 0)
(0.0136628 -6.89116e-05 0)
(0.0160462 -0.000218076 0)
(0.0161219 -0.000369604 0)
(0.0161066 -0.000526522 0)
(0.0138084 -7.10571e-05 0)
(0.0161996 -0.000225338 0)
(0.0162789 -0.000381821 0)
(0.0162692 -0.000543223 0)
(0.0139577 -7.24238e-05 0)
(0.016357 -0.000230027 0)
(0.0164396 -0.00038967 0)
(0.0164349 -0.00055376 0)
(0.0141093 -7.31e-05 0)
(0.0165169 -0.000232434 0)
(0.0166025 -0.000393639 0)
(0.0166021 -0.00055884 0)
(0.0142617 -7.31681e-05 0)
(0.0166778 -0.000232839 0)
(0.016766 -0.000394208 0)
(0.0167694 -0.000559155 0)
(0.0144138 -7.27064e-05 0)
(0.0168383 -0.000231509 0)
(0.0169288 -0.000391841 0)
(0.0169355 -0.000555363 0)
(0.0145644 -7.17883e-05 0)
(0.0169973 -0.000228697 0)
(0.0170899 -0.000386969 0)
(0.0170993 -0.000548069 0)
(0.0147128 -7.04838e-05 0)
(0.0171538 -0.000224629 0)
(0.0172483 -0.00037998 0)
(0.0172601 -0.000537814 0)
(0.0148581 -6.88575e-05 0)
(0.0173072 -0.00021951 0)
(0.0174032 -0.000371223 0)
(0.017417 -0.000525095 0)
(0.0149998 -6.69682e-05 0)
(0.0174566 -0.000213529 0)
(0.0175541 -0.000361017 0)
(0.0175694 -0.000510366 0)
(0.0151373 -6.48667e-05 0)
(0.0176017 -0.000206858 0)
(0.0177003 -0.000349651 0)
(0.0177169 -0.000494033 0)
(0.0152703 -6.25995e-05 0)
(0.0177419 -0.00019965 0)
(0.0178415 -0.000337386 0)
(0.017859 -0.000476463 0)
(0.0153984 -6.02079e-05 0)
(0.017877 -0.000192042 0)
(0.0179774 -0.000324454 0)
(0.0179956 -0.000457983 0)
(0.0155214 -5.77307e-05 0)
(0.0180067 -0.000184154 0)
(0.0181078 -0.000311058 0)
(0.0181264 -0.00043888 0)
(0.0156392 -5.52012e-05 0)
(0.0181309 -0.000176093 0)
(0.0182325 -0.000297379 0)
(0.0182514 -0.000419404 0)
(0.0157517 -5.26471e-05 0)
(0.0182494 -0.000167951 0)
(0.0183514 -0.000283571 0)
(0.0183704 -0.000399773 0)
(0.0158589 -5.00931e-05 0)
(0.0183624 -0.000159806 0)
(0.0184646 -0.000269767 0)
(0.0184835 -0.000380171 0)
(0.0159608 -4.75594e-05 0)
(0.0184697 -0.000151725 0)
(0.0185721 -0.000256079 0)
(0.0185909 -0.000360756 0)
(0.0160574 -4.50632e-05 0)
(0.0185714 -0.000143766 0)
(0.018674 -0.000242603 0)
(0.0186924 -0.000341659 0)
(0.0161488 -4.26195e-05 0)
(0.0186677 -0.000135974 0)
(0.0187703 -0.000229415 0)
(0.0187884 -0.000322987 0)
(0.0162353 -4.02398e-05 0)
(0.0187587 -0.000128386 0)
(0.0188613 -0.000216579 0)
(0.018879 -0.000304828 0)
(0.0163168 -3.79342e-05 0)
(0.0188445 -0.000121033 0)
(0.0189471 -0.000204143 0)
(0.0189642 -0.000287249 0)
(0.0163936 -3.57093e-05 0)
(0.0189254 -0.000113938 0)
(0.0190279 -0.000192147 0)
(0.0190445 -0.000270303 0)
(0.0164659 -3.35699e-05 0)
(0.0190014 -0.000107116 0)
(0.0191038 -0.000180617 0)
(0.0191198 -0.000254027 0)
(0.0165338 -3.15197e-05 0)
(0.0190728 -0.000100581 0)
(0.0191751 -0.000169574 0)
(0.0191905 -0.000238446 0)
(0.0165975 -2.95612e-05 0)
(0.0191399 -9.43397e-05 0)
(0.0192419 -0.000159029 0)
(0.0192568 -0.000223575 0)
(0.0166572 -2.76952e-05 0)
(0.0192027 -8.83942e-05 0)
(0.0193046 -0.000148987 0)
(0.0193188 -0.000209419 0)
(0.0167132 -2.59219e-05 0)
(0.0192615 -8.27448e-05 0)
(0.0193632 -0.000139449 0)
(0.0193769 -0.000195979 0)
(0.0167655 -2.42413e-05 0)
(0.0193166 -7.73893e-05 0)
(0.0194181 -0.00013041 0)
(0.0194311 -0.000183245 0)
(0.0168145 -2.2652e-05 0)
(0.019368 -7.2323e-05 0)
(0.0194693 -0.000121862 0)
(0.0194818 -0.000171207 0)
(0.0168602 -2.11517e-05 0)
(0.0194161 -6.75395e-05 0)
(0.0195172 -0.000113793 0)
(0.0195291 -0.000159847 0)
(0.0169028 -1.97378e-05 0)
(0.019461 -6.30311e-05 0)
(0.0195619 -0.00010619 0)
(0.0195732 -0.000149147 0)
(0.0169427 -1.84071e-05 0)
(0.0195029 -5.87894e-05 0)
(0.0196035 -9.90371e-05 0)
(0.0196143 -0.000139084 0)
(0.0169798 -1.71566e-05 0)
(0.0195419 -5.48043e-05 0)
(0.0196424 -9.2318e-05 0)
(0.0196526 -0.000129633 0)
(0.0170144 -1.59835e-05 0)
(0.0195783 -5.10659e-05 0)
(0.0196785 -8.60147e-05 0)
(0.0196883 -0.00012077 0)
(0.0170466 -1.48838e-05 0)
(0.0196121 -4.75627e-05 0)
(0.0197122 -8.01093e-05 0)
(0.0197216 -0.000112469 0)
(0.0170766 -1.38551e-05 0)
(0.0196437 -4.42848e-05 0)
(0.0197436 -7.45842e-05 0)
(0.0197525 -0.000104704 0)
(0.0171046 -1.28931e-05 0)
(0.0196731 -4.1221e-05 0)
(0.0197728 -6.94207e-05 0)
(0.0197813 -9.74478e-05 0)
(0.0171306 -1.19954e-05 0)
(0.0197004 -3.836e-05 0)
(0.0198 -6.45998e-05 0)
(0.019808 -9.06749e-05 0)
(0.0171547 -1.11581e-05 0)
(0.0197259 -3.56916e-05 0)
(0.0198253 -6.0104e-05 0)
(0.0198329 -8.43596e-05 0)
(0.0171773 -1.03776e-05 0)
(0.0197495 -3.32049e-05 0)
(0.0198488 -5.59152e-05 0)
(0.0198561 -7.84771e-05 0)
(0.0171982 -9.65128e-06 0)
(0.0197716 -3.08905e-05 0)
(0.0198707 -5.20172e-05 0)
(0.0198776 -7.30031e-05 0)
(0.0172177 -8.97575e-06 0)
(0.019792 -2.87386e-05 0)
(0.019891 -4.83934e-05 0)
(0.0198977 -6.79144e-05 0)
(0.0172358 -8.34804e-06 0)
(0.0198111 -2.67397e-05 0)
(0.0199099 -4.50275e-05 0)
(0.0199163 -6.31879e-05 0)
(0.0172526 -7.76564e-06 0)
(0.0198288 -2.4885e-05 0)
(0.0199275 -4.1904e-05 0)
(0.0199336 -5.8803e-05 0)
(0.0172683 -7.22574e-06 0)
(0.0198454 -2.31653e-05 0)
(0.0199439 -3.90086e-05 0)
(0.0199497 -5.47391e-05 0)
(0.0172829 -6.72588e-06 0)
(0.0198607 -2.15731e-05 0)
(0.0199592 -3.6328e-05 0)
(0.0199647 -5.09769e-05 0)
(0.0172965 -6.2635e-06 0)
(0.0198751 -2.01006e-05 0)
(0.0199734 -3.38494e-05 0)
(0.0199787 -4.74982e-05 0)
(0.0173092 -5.83631e-06 0)
(0.0198884 -1.87404e-05 0)
(0.0199867 -3.15599e-05 0)
(0.0199918 -4.42858e-05 0)
(0.017321 -5.44224e-06 0)
(0.0199009 -1.74858e-05 0)
(0.019999 -2.94487e-05 0)
(0.0200039 -4.13236e-05 0)
(0.0173321 -5.07921e-06 0)
(0.0199125 -1.63306e-05 0)
(0.0200106 -2.75048e-05 0)
(0.0200153 -3.85965e-05 0)
(0.0173424 -4.74514e-06 0)
(0.0199234 -1.52685e-05 0)
(0.0200214 -2.57183e-05 0)
(0.0200259 -3.60905e-05 0)
(0.017352 -4.4384e-06 0)
(0.0199336 -1.42946e-05 0)
(0.0200315 -2.40801e-05 0)
(0.0200358 -3.37919e-05 0)
(0.0173611 -4.15767e-06 0)
(0.0199431 -1.34032e-05 0)
(0.0200409 -2.25807e-05 0)
(0.0200451 -3.16891e-05 0)
(0.0173695 -3.9013e-06 0)
(0.019952 -1.25901e-05 0)
(0.0200498 -2.1213e-05 0)
(0.0200538 -2.97706e-05 0)
(0.0173775 -3.66825e-06 0)
(0.0199605 -1.18506e-05 0)
(0.0200581 -1.9969e-05 0)
(0.020062 -2.80262e-05 0)
(0.017385 -3.4566e-06 0)
(0.0199684 -1.11805e-05 0)
(0.020066 -1.88425e-05 0)
(0.0200697 -2.64464e-05 0)
(0.0173921 -3.26563e-06 0)
(0.0199759 -1.05764e-05 0)
(0.0200735 -1.78269e-05 0)
(0.020077 -2.50226e-05 0)
(0.0173988 -3.09386e-06 0)
(0.019983 -1.00348e-05 0)
(0.0200805 -1.69171e-05 0)
(0.0200839 -2.37473e-05 0)
(0.0174052 -2.94071e-06 0)
(0.0199898 -9.5529e-06 0)
(0.0200872 -1.61079e-05 0)
(0.0200905 -2.26132e-05 0)
(0.0174113 -2.80543e-06 0)
(0.0199962 -9.12854e-06 0)
(0.0200936 -1.5395e-05 0)
(0.0200968 -2.16137e-05 0)
(0.0174171 -2.68727e-06 0)
(0.0200024 -8.75865e-06 0)
(0.0200997 -1.47742e-05 0)
(0.0201028 -2.0744e-05 0)
(0.0174227 -2.58527e-06 0)
(0.0200084 -8.44133e-06 0)
(0.0201056 -1.42421e-05 0)
(0.0201086 -1.99989e-05 0)
(0.0174281 -2.49878e-06 0)
(0.0200141 -8.17511e-06 0)
(0.0201113 -1.37962e-05 0)
(0.0201142 -1.93742e-05 0)
(0.0174333 -2.42745e-06 0)
(0.0200197 -7.95828e-06 0)
(0.0201168 -1.34339e-05 0)
(0.0201196 -1.88667e-05 0)
(0.0174384 -2.37091e-06 0)
(0.0200251 -7.79023e-06 0)
(0.0201222 -1.31532e-05 0)
(0.0201249 -1.84732e-05 0)
(0.0174434 -2.32946e-06 0)
(0.0200305 -7.66966e-06 0)
(0.0201275 -1.29524e-05 0)
(0.0201301 -1.81924e-05 0)
(0.0174484 -2.3025e-06 0)
(0.0200358 -7.59607e-06 0)
(0.0201328 -1.28306e-05 0)
(0.0201353 -1.80227e-05 0)
(0.0174533 -2.28977e-06 0)
(0.0200411 -7.56891e-06 0)
(0.020138 -1.27874e-05 0)
(0.0201404 -1.79631e-05 0)
(0.0174582 -2.29068e-06 0)
(0.0200463 -7.58816e-06 0)
(0.0201432 -1.28229e-05 0)
(0.0201455 -1.80139e-05 0)
(0.0174631 -2.30598e-06 0)
(0.0200516 -7.65431e-06 0)
(0.0201484 -1.29372e-05 0)
(0.0201506 -1.81755e-05 0)
(0.0174681 -2.33564e-06 0)
(0.020057 -7.76818e-06 0)
(0.0201537 -1.31316e-05 0)
(0.0201558 -1.84485e-05 0)
(0.0174732 -2.38031e-06 0)
(0.0200625 -7.92993e-06 0)
(0.0201591 -1.34071e-05 0)
(0.0201611 -1.88358e-05 0)
(0.0174784 -2.44043e-06 0)
(0.0200681 -8.14083e-06 0)
(0.0201647 -1.37648e-05 0)
(0.0201665 -1.93398e-05 0)
(0.0174838 -2.5155e-06 0)
(0.0200738 -8.40224e-06 0)
(0.0201703 -1.42085e-05 0)
(0.0201721 -1.99638e-05 0)
(0.0174893 -2.60618e-06 0)
(0.0200798 -8.71573e-06 0)
(0.0201762 -1.47406e-05 0)
(0.0201779 -2.0712e-05 0)
(0.017495 -2.71256e-06 0)
(0.020086 -9.08363e-06 0)
(0.0201824 -1.53646e-05 0)
(0.0201839 -2.15889e-05 0)
(0.0175011 -2.83619e-06 0)
(0.0200925 -9.5087e-06 0)
(0.0201888 -1.60847e-05 0)
(0.0201902 -2.26001e-05 0)
(0.0175074 -2.97806e-06 0)
(0.0200993 -9.99361e-06 0)
(0.0201955 -1.69056e-05 0)
(0.0201968 -2.37523e-05 0)
(0.017514 -3.13934e-06 0)
(0.0201065 -1.05415e-05 0)
(0.0202025 -1.78321e-05 0)
(0.0202037 -2.50533e-05 0)
(0.017521 -3.3207e-06 0)
(0.020114 -1.11554e-05 0)
(0.02021 -1.88701e-05 0)
(0.020211 -2.65115e-05 0)
(0.0175284 -3.52299e-06 0)
(0.0201221 -1.18394e-05 0)
(0.0202179 -2.00268e-05 0)
(0.0202188 -2.81362e-05 0)
(0.0175363 -3.74731e-06 0)
(0.0201306 -1.25978e-05 0)
(0.0202263 -2.13098e-05 0)
(0.020227 -2.99377e-05 0)
(0.0175447 -3.99545e-06 0)
(0.0201397 -1.34358e-05 0)
(0.0202353 -2.27274e-05 0)
(0.0202358 -3.19286e-05 0)
(0.0175537 -4.26922e-06 0)
(0.0201494 -1.43594e-05 0)
(0.0202448 -2.42888e-05 0)
(0.0202452 -3.41203e-05 0)
(0.0175633 -4.57055e-06 0)
(0.0201597 -1.5374e-05 0)
(0.0202551 -2.60039e-05 0)
(0.0202552 -3.65287e-05 0)
(0.0175736 -4.90144e-06 0)
(0.0201709 -1.64864e-05 0)
(0.020266 -2.78841e-05 0)
(0.020266 -3.91682e-05 0)
(0.0175846 -5.26376e-06 0)
(0.0201828 -1.77035e-05 0)
(0.0202778 -2.99413e-05 0)
(0.0202775 -4.20568e-05 0)
(0.0175965 -5.65944e-06 0)
(0.0201956 -1.90338e-05 0)
(0.0202904 -3.21901e-05 0)
(0.0202899 -4.52133e-05 0)
(0.0176092 -6.09143e-06 0)
(0.0202094 -2.04858e-05 0)
(0.020304 -3.46446e-05 0)
(0.0203032 -4.86582e-05 0)
(0.017623 -6.56264e-06 0)
(0.0202243 -2.20697e-05 0)
(0.0203186 -3.73211e-05 0)
(0.0203176 -5.24137e-05 0)
(0.0176378 -7.07648e-06 0)
(0.0202403 -2.37957e-05 0)
(0.0203344 -4.02374e-05 0)
(0.020333 -5.65053e-05 0)
(0.0176537 -7.63733e-06 0)
(0.0202575 -2.56754e-05 0)
(0.0203514 -4.34122e-05 0)
(0.0203497 -6.09601e-05 0)
(0.017671 -8.2482e-06 0)
(0.0202761 -2.77212e-05 0)
(0.0203697 -4.6867e-05 0)
(0.0203677 -6.58078e-05 0)
(0.0176896 -8.91289e-06 0)
(0.0202962 -2.99464e-05 0)
(0.0203895 -5.06255e-05 0)
(0.0203871 -7.10817e-05 0)
(0.0177097 -9.63592e-06 0)
(0.020318 -3.23666e-05 0)
(0.0204109 -5.47134e-05 0)
(0.020408 -7.68171e-05 0)
(0.0177315 -1.0422e-05 0)
(0.0203414 -3.49983e-05 0)
(0.020434 -5.91584e-05 0)
(0.0204307 -8.30524e-05 0)
(0.017755 -1.12773e-05 0)
(0.0203668 -3.78603e-05 0)
(0.020459 -6.39909e-05 0)
(0.0204552 -8.98305e-05 0)
(0.0177805 -1.22076e-05 0)
(0.0203943 -4.09717e-05 0)
(0.020486 -6.92443e-05 0)
(0.0204817 -9.71977e-05 0)
(0.0178081 -1.32198e-05 0)
(0.020424 -4.43547e-05 0)
(0.0205153 -7.49548e-05 0)
(0.0205104 -0.000105205 0)
(0.0178379 -1.4321e-05 0)
(0.0204562 -4.80328e-05 0)
(0.0205469 -8.11627e-05 0)
(0.0205414 -0.000113909 0)
(0.0178702 -1.55186e-05 0)
(0.0204911 -5.20317e-05 0)
(0.0205812 -8.79119e-05 0)
(0.020575 -0.000123371 0)
(0.0179053 -1.68219e-05 0)
(0.0205288 -5.63808e-05 0)
(0.0206183 -9.52508e-05 0)
(0.0206114 -0.000133657 0)
(0.0179433 -1.82404e-05 0)
(0.0205697 -6.1112e-05 0)
(0.0206586 -0.000103233 0)
(0.0206508 -0.000144843 0)
(0.0179844 -1.9785e-05 0)
(0.020614 -6.62596e-05 0)
(0.0207022 -0.000111915 0)
(0.0206935 -0.000157009 0)
(0.0180291 -2.14672e-05 0)
(0.0206621 -7.18621e-05 0)
(0.0207494 -0.000121363 0)
(0.0207398 -0.000170244 0)
(0.0180775 -2.32998e-05 0)
(0.0207142 -7.79616e-05 0)
(0.0208007 -0.000131646 0)
(0.02079 -0.000184648 0)
(0.0181301 -2.52976e-05 0)
(0.0207707 -8.46048e-05 0)
(0.0208562 -0.000142844 0)
(0.0208444 -0.000200329 0)
(0.0181872 -2.74758e-05 0)
(0.020832 -9.1843e-05 0)
(0.0209165 -0.000155041 0)
(0.0209034 -0.000217406 0)
(0.0182491 -2.98526e-05 0)
(0.0208986 -9.97334e-05 0)
(0.0209819 -0.000168333 0)
(0.0209674 -0.000236013 0)
(0.0183165 -3.24466e-05 0)
(0.0209709 -0.000108339 0)
(0.0210529 -0.000182827 0)
(0.0210369 -0.000256296 0)
(0.0183896 -3.52799e-05 0)
(0.0210494 -0.000117732 0)
(0.02113 -0.00019864 0)
(0.0211123 -0.000278418 0)
(0.0184691 -3.83769e-05 0)
(0.0211346 -0.00012799 0)
(0.0212138 -0.000215903 0)
(0.0211942 -0.000302559 0)
(0.0185556 -4.17651e-05 0)
(0.0212273 -0.0001392 0)
(0.0213048 -0.00023476 0)
(0.0212832 -0.000328922 0)
(0.0186497 -4.54758e-05 0)
(0.0213281 -0.00015146 0)
(0.0214037 -0.000255374 0)
(0.0213798 -0.000357731 0)
(0.0187522 -4.95424e-05 0)
(0.0214377 -0.00016488 0)
(0.0215113 -0.000277926 0)
(0.0214849 -0.000389237 0)
(0.0188638 -5.40038e-05 0)
(0.021557 -0.000179582 0)
(0.0216283 -0.000302621 0)
(0.0215992 -0.000423721 0)
(0.0189854 -5.89031e-05 0)
(0.0216869 -0.000195705 0)
(0.0217556 -0.000329685 0)
(0.0217236 -0.000461499 0)
(0.019118 -6.42891e-05 0)
(0.0218284 -0.000213403 0)
(0.0218943 -0.000359379 0)
(0.0218589 -0.000502926 0)
(0.0192626 -7.02178e-05 0)
(0.0219827 -0.000232855 0)
(0.0220455 -0.000391992 0)
(0.0220063 -0.000548403 0)
(0.0194206 -7.67535e-05 0)
(0.0221509 -0.000254262 0)
(0.0222102 -0.000427856 0)
(0.0221669 -0.000598384 0)
(0.0195932 -8.3969e-05 0)
(0.0223345 -0.000277852 0)
(0.0223899 -0.000467346 0)
(0.022342 -0.000653384 0)
(0.019782 -9.19485e-05 0)
(0.0225351 -0.000303885 0)
(0.0225861 -0.000510889 0)
(0.022533 -0.000713988 0)
(0.0199887 -0.000100788 0)
(0.0227543 -0.000332663 0)
(0.0228004 -0.000558973 0)
(0.0227415 -0.000780865 0)
(0.0202151 -0.000110597 0)
(0.0229941 -0.000364527 0)
(0.0230348 -0.000612159 0)
(0.0229693 -0.000854779 0)
(0.0204635 -0.000121506 0)
(0.0232567 -0.000399873 0)
(0.0232912 -0.000671094 0)
(0.0232184 -0.000936612 0)
(0.0207362 -0.000133665 0)
(0.0235447 -0.00043916 0)
(0.0235721 -0.000736527 0)
(0.0234909 -0.00102738 0)
(0.0210362 -0.000147251 0)
(0.0238606 -0.000482924 0)
(0.0238801 -0.000809327 0)
(0.0237895 -0.00112826 0)
(0.0213664 -0.00016247 0)
(0.0242078 -0.000531789 0)
(0.0242181 -0.00089051 0)
(0.0241168 -0.00124063 0)
(0.0217306 -0.000179567 0)
(0.0245897 -0.000586491 0)
(0.0245897 -0.000981262 0)
(0.024476 -0.00136608 0)
(0.0221328 -0.000198833 0)
(0.0250105 -0.000647898 0)
(0.0249986 -0.00108298 0)
(0.0248709 -0.00150651 0)
(0.0225779 -0.000220612 0)
(0.025475 -0.000717039 0)
(0.0254493 -0.00119733 0)
(0.0253053 -0.00166412 0)
(0.0230714 -0.000245323 0)
(0.0259884 -0.000795143 0)
(0.0259468 -0.00132628 0)
(0.0257841 -0.00184157 0)
(0.0236198 -0.000273467 0)
(0.026557 -0.000883687 0)
(0.026497 -0.00147219 0)
(0.0263124 -0.00204199 0)
(0.0242306 -0.000305657 0)
(0.0271882 -0.000984454 0)
(0.0271066 -0.0016379 0)
(0.0268965 -0.00226917 0)
(0.0249126 -0.000342641 0)
(0.0278904 -0.00109962 0)
(0.0277835 -0.00182689 0)
(0.0275433 -0.00252767 0)
(0.0256764 -0.000385343 0)
(0.0286735 -0.00123183 0)
(0.0285367 -0.00204336 0)
(0.028261 -0.00282305 0)
(0.0265345 -0.000434909 0)
(0.0295494 -0.00138438 0)
(0.0293771 -0.00229251 0)
(0.0290591 -0.00316213 0)
(0.0275019 -0.000492772 0)
(0.0305321 -0.00156139 0)
(0.0303174 -0.00258078 0)
(0.0299487 -0.00355332 0)
(0.0285967 -0.00056075 0)
(0.0316384 -0.00176803 0)
(0.0313727 -0.00291623 0)
(0.0309425 -0.0040071 0)
(0.029841 -0.000641134 0)
(0.0328887 -0.00201081 0)
(0.032561 -0.00330908 0)
(0.032056 -0.00453663 0)
(0.031262 -0.000737012 0)
(0.0343078 -0.00229824 0)
(0.0339042 -0.00377241 0)
(0.0333071 -0.00515861 0)
(0.0328932 -0.00085201 0)
(0.0359262 -0.00264093 0)
(0.0354287 -0.00432308 0)
(0.0347172 -0.00589443 0)
(0.0347774 -0.000992007 0)
(0.0377817 -0.00305397 0)
(0.0371671 -0.00498321 0)
(0.0363117 -0.00677182 0)
(0.0369675 -0.00116232 0)
(0.0399226 -0.00355497 0)
(0.0391594 -0.00578206 0)
(0.0381209 -0.00782711 0)
(0.0395335 -0.00137527 0)
(0.0424091 -0.0041727 0)
(0.0414557 -0.006759 0)
(0.0401813 -0.00910855 0)
(0.0425642 -0.00163941 0)
(0.0453203 -0.00493883 0)
(0.0441188 -0.00796796 0)
(0.042536 -0.0106809 0)
(0.0461814 -0.00197832 0)
(0.0487592 -0.00590846 0)
(0.0472287 -0.00948353 0)
(0.0452364 -0.0126329 0)
(0.0505397 -0.00241327 0)
(0.0528632 -0.00714912 0)
(0.0508887 -0.0114116 0)
(0.0483429 -0.0150866 0)
(0.0558823 -0.00298491 0)
(0.0578192 -0.00876696 0)
(0.0552288 -0.0139044 0)
(0.0519237 -0.0182148 0)
(0.062445 -0.00375413 0)
(0.0638832 -0.0109264 0)
(0.0604351 -0.0171859 0)
(0.0560579 -0.0222617 0)
(0.070921 -0.00478889 0)
(0.071432 -0.0138256 0)
(0.066701 -0.0215906 0)
(0.0608095 -0.0275946 0)
(0.0810757 -0.00625247 0)
(0.0809215 -0.0179328 0)
(0.0744949 -0.0276342 0)
(0.0662985 -0.0347187 0)
(0.0965727 -0.00836675 0)
(0.0934389 -0.0235389 0)
(0.0838093 -0.036098 0)
(0.0723232 -0.0445646 0)
(0.110435 -0.0108413 0)
(0.108536 -0.0315219 0)
(0.0969077 -0.0482228 0)
(0.0798889 -0.058108 0)
(0.146361 -0.0164669 0)
(0.134269 -0.0446921 0)
(0.111238 -0.0663128 0)
(0.0849107 -0.0787438 0)
(0.157689 -0.0173538 0)
(0.151662 -0.052999 0)
(0.135093 -0.0882678 0)
(0.104544 -0.106615 0)
(0.246436 -0.0341508 0)
(0.225563 -0.098441 0)
(0.176502 -0.148831 0)
(0.101767 -0.168575 0)
(0.00838752 -0.00728379 0)
(0.0198773 -0.0120739 0)
(0.034492 -0.0138754 0)
(0.0478243 -0.012257 0)
(0.0622223 -0.002997 0)
(0.0783251 0.0165804 0)
(0.0837536 0.0337731 0)
(0.0797529 0.0435289 0)
(0.0706633 0.0463113 0)
(0.0603807 0.0421919 0)
(0.0512131 0.0350871 0)
(0.0445687 0.0290667 0)
(0.0393995 0.0245884 0)
(0.0351097 0.0208487 0)
(0.0315595 0.0173646 0)
(0.0286298 0.0142432 0)
(0.0261901 0.0116689 0)
(0.0241577 0.00962693 0)
(0.0224687 0.00800028 0)
(0.0210628 0.00668101 0)
(0.0198884 0.00559449 0)
(0.018905 0.00468902 0)
(0.0180815 0.00392627 0)
(0.0173938 0.00327743 0)
(0.0168229 0.00272074 0)
(0.0163532 0.00223966 0)
(0.0159718 0.00182148 0)
(0.0156682 0.00145632 0)
(0.0154331 0.00113635 0)
(0.0152586 0.000855436 0)
(0.0151376 0.000608703 0)
(0.015064 0.000392267 0)
(0.0150324 0.000202961 0)
(0.0150379 3.71229e-05 0)
(0.0150759 -0.000108081 0)
(0.0151416 -0.000234129 0)
(0.015231 -0.000342058 0)
(0.0153406 -0.000433106 0)
(0.0154671 -0.000509135 0)
(0.0156074 -0.00057164 0)
(0.0157587 -0.000621891 0)
(0.0159184 -0.000661086 0)
(0.0160843 -0.000690351 0)
(0.0162544 -0.000710725 0)
(0.0164266 -0.000723187 0)
(0.0165996 -0.000728675 0)
(0.0167719 -0.000728092 0)
(0.0169423 -0.000722285 0)
(0.0171099 -0.00071202 0)
(0.0172737 -0.000698001 0)
(0.0174332 -0.000680868 0)
(0.0175876 -0.000661204 0)
(0.0177367 -0.000639537 0)
(0.0178801 -0.000616337 0)
(0.0180175 -0.000592023 0)
(0.0181489 -0.000566962 0)
(0.0182741 -0.000541475 0)
(0.0183932 -0.000515837 0)
(0.0185062 -0.000490285 0)
(0.0186132 -0.000465015 0)
(0.0187143 -0.000440195 0)
(0.0188098 -0.000415956 0)
(0.0188997 -0.000392408 0)
(0.0189842 -0.000369636 0)
(0.0190637 -0.000347702 0)
(0.0191383 -0.000326653 0)
(0.0192081 -0.000306519 0)
(0.0192736 -0.000287318 0)
(0.0193348 -0.000269053 0)
(0.019392 -0.00025172 0)
(0.0194455 -0.000235309 0)
(0.0194953 -0.000219802 0)
(0.0195419 -0.000205176 0)
(0.0195852 -0.000191403 0)
(0.0196256 -0.000178454 0)
(0.0196633 -0.000166299 0)
(0.0196983 -0.000154905 0)
(0.0197309 -0.000144237 0)
(0.0197612 -0.000134259 0)
(0.0197894 -0.000124939 0)
(0.0198156 -0.000116241 0)
(0.01984 -0.000108133 0)
(0.0198627 -0.000100583 0)
(0.0198838 -9.35576e-05 0)
(0.0199033 -8.70281e-05 0)
(0.0199216 -8.0965e-05 0)
(0.0199385 -7.53412e-05 0)
(0.0199543 -7.01297e-05 0)
(0.0199689 -6.53058e-05 0)
(0.0199826 -6.08458e-05 0)
(0.0199953 -5.67277e-05 0)
(0.0200072 -5.29309e-05 0)
(0.0200183 -4.94359e-05 0)
(0.0200286 -4.6224e-05 0)
(0.0200383 -4.32786e-05 0)
(0.0200474 -4.05844e-05 0)
(0.0200559 -3.81266e-05 0)
(0.0200639 -3.58921e-05 0)
(0.0200714 -3.38687e-05 0)
(0.0200786 -3.20451e-05 0)
(0.0200853 -3.04116e-05 0)
(0.0200917 -2.89588e-05 0)
(0.0200979 -2.76793e-05 0)
(0.0201037 -2.65657e-05 0)
(0.0201094 -2.56117e-05 0)
(0.0201148 -2.48118e-05 0)
(0.0201201 -2.41621e-05 0)
(0.0201253 -2.36587e-05 0)
(0.0201304 -2.32998e-05 0)
(0.0201354 -2.3083e-05 0)
(0.0201404 -2.30074e-05 0)
(0.0201453 -2.3073e-05 0)
(0.0201503 -2.32803e-05 0)
(0.0201554 -2.3631e-05 0)
(0.0201606 -2.41276e-05 0)
(0.0201659 -2.47737e-05 0)
(0.0201713 -2.55732e-05 0)
(0.0201769 -2.65312e-05 0)
(0.0201828 -2.76543e-05 0)
(0.0201889 -2.89497e-05 0)
(0.0201953 -3.04259e-05 0)
(0.0202021 -3.20927e-05 0)
(0.0202092 -3.39606e-05 0)
(0.0202168 -3.60415e-05 0)
(0.0202248 -3.83488e-05 0)
(0.0202334 -4.08979e-05 0)
(0.0202426 -4.3705e-05 0)
(0.0202523 -4.67887e-05 0)
(0.0202628 -5.01685e-05 0)
(0.020274 -5.38669e-05 0)
(0.0202861 -5.79077e-05 0)
(0.0202991 -6.23177e-05 0)
(0.0203131 -6.7126e-05 0)
(0.0203281 -7.2364e-05 0)
(0.0203443 -7.80667e-05 0)
(0.0203619 -8.42719e-05 0)
(0.0203808 -9.10218e-05 0)
(0.0204012 -9.83611e-05 0)
(0.0204233 -0.00010634 0)
(0.0204471 -0.000115013 0)
(0.0204729 -0.000124438 0)
(0.0205008 -0.000134682 0)
(0.0205311 -0.000145815 0)
(0.0205638 -0.000157917 0)
(0.0205992 -0.000171071 0)
(0.0206375 -0.000185374 0)
(0.0206791 -0.000200927 0)
(0.0207241 -0.000217845 0)
(0.0207729 -0.000236253 0)
(0.0208257 -0.000256288 0)
(0.0208831 -0.000278104 0)
(0.0209453 -0.000301866 0)
(0.0210128 -0.000327764 0)
(0.021086 -0.000356001 0)
(0.0211655 -0.000386809 0)
(0.0212519 -0.000420439 0)
(0.0213456 -0.000457178 0)
(0.0214475 -0.00049734 0)
(0.0215582 -0.000541281 0)
(0.0216787 -0.000589397 0)
(0.0218096 -0.000642135 0)
(0.0219522 -0.000699998 0)
(0.0221074 -0.000763555 0)
(0.0222765 -0.000833448 0)
(0.0224608 -0.00091041 0)
(0.0226618 -0.000995273 0)
(0.0228812 -0.00108899 0)
(0.0231207 -0.00119265 0)
(0.0233826 -0.00130752 0)
(0.0236689 -0.00143505 0)
(0.0239824 -0.00157694 0)
(0.0243259 -0.00173514 0)
(0.0247027 -0.00191196 0)
(0.0251163 -0.00211013 0)
(0.0255711 -0.00233284 0)
(0.0260716 -0.0025839 0)
(0.0266232 -0.00286788 0)
(0.0272319 -0.00319025 0)
(0.0279047 -0.00355763 0)
(0.0286495 -0.0039781 0)
(0.0294753 -0.00446156 0)
(0.0303925 -0.00502023 0)
(0.031413 -0.00566935 0)
(0.0325504 -0.00642803 0)
(0.0338203 -0.00732049 0)
(0.0352401 -0.0083777 0)
(0.0368295 -0.00963954 0)
(0.0386101 -0.0111581 0)
(0.0406047 -0.0130018 0)
(0.0428356 -0.0152618 0)
(0.0453218 -0.0180603 0)
(0.0480726 -0.0215636 0)
(0.051076 -0.0259985 0)
(0.0542784 -0.0316827 0)
(0.0575365 -0.0390484 0)
(0.0605639 -0.0487562 0)
(0.0626992 -0.0615754 0)
(0.0623474 -0.0794608 0)
(0.0598203 -0.103269 0)
(0.0177755 -0.144388 0)
(0.00545313 -0.0237132 0)
(0.0132954 -0.0269653 0)
(0.022971 -0.0278174 0)
(0.0306763 -0.0250931 0)
(0.0373032 -0.0172172 0)
(0.0465409 0.00310841 0)
(0.0546432 0.0302342 0)
(0.0550799 0.0468642 0)
(0.0521903 0.0521284 0)
(0.0472734 0.049758 0)
(0.0417151 0.0420991 0)
(0.036983 0.0345415 0)
(0.0331028 0.0289788 0)
(0.0298653 0.0244013 0)
(0.0273479 0.0202357 0)
(0.0253315 0.0165938 0)
(0.0236049 0.0136273 0)
(0.0221114 0.0112694 0)
(0.0208289 0.00937997 0)
(0.0197294 0.00784299 0)
(0.0187884 0.00657534 0)
(0.0179858 0.0055165 0)
(0.0173046 0.00462204 0)
(0.0167308 0.00385898 0)
(0.0162522 0.00320238 0)
(0.0158585 0.00263337 0)
(0.0155406 0.00213737 0)
(0.0152907 0.00170308 0)
(0.0151016 0.00132165 0)
(0.0149671 0.000986062 0)
(0.0148813 0.000690763 0)
(0.0148391 0.000431221 0)
(0.0148356 0.000203497 0)
(0.0148665 4.00272e-06 0)
(0.0149274 -0.000170197 0)
(0.0150139 -0.000320992 0)
(0.0151221 -0.000449954 0)
(0.0152491 -0.000558995 0)
(0.0153913 -0.000649726 0)
(0.0155459 -0.000723966 0)
(0.0157101 -0.000783321 0)
(0.0158815 -0.000829238 0)
(0.0160578 -0.000863071 0)
(0.0162371 -0.000886101 0)
(0.0164175 -0.00089955 0)
(0.0165977 -0.000904582 0)
(0.0167762 -0.000902298 0)
(0.016952 -0.000893719 0)
(0.0171241 -0.000879784 0)
(0.0172917 -0.000861354 0)
(0.0174543 -0.000839219 0)
(0.0176112 -0.000814094 0)
(0.0177622 -0.000786621 0)
(0.017907 -0.000757374 0)
(0.0180455 -0.000726858 0)
(0.0181774 -0.000695519 0)
(0.018303 -0.000663742 0)
(0.018422 -0.00063186 0)
(0.0185348 -0.000600155 0)
(0.0186414 -0.000568863 0)
(0.0187419 -0.00053818 0)
(0.0188366 -0.000508265 0)
(0.0189257 -0.000479244 0)
(0.0190093 -0.000451214 0)
(0.0190878 -0.000424248 0)
(0.0191614 -0.000398395 0)
(0.0192302 -0.00037369 0)
(0.0192946 -0.000350148 0)
(0.0193548 -0.000327772 0)
(0.0194109 -0.000306556 0)
(0.0194633 -0.000286483 0)
(0.0195122 -0.000267528 0)
(0.0195578 -0.00024966 0)
(0.0196002 -0.000232845 0)
(0.0196397 -0.000217045 0)
(0.0196764 -0.00020222 0)
(0.0197106 -0.000188327 0)
(0.0197424 -0.000175325 0)
(0.019772 -0.000163169 0)
(0.0197995 -0.000151817 0)
(0.019825 -0.000141228 0)
(0.0198488 -0.000131359 0)
(0.0198708 -0.000122171 0)
(0.0198913 -0.000113625 0)
(0.0199104 -0.000105684 0)
(0.0199281 -9.83119e-05 0)
(0.0199445 -9.14747e-05 0)
(0.0199599 -8.514e-05 0)
(0.0199741 -7.92771e-05 0)
(0.0199874 -7.3858e-05 0)
(0.0199997 -6.88554e-05 0)
(0.0200112 -6.42433e-05 0)
(0.020022 -5.9998e-05 0)
(0.020032 -5.60973e-05 0)
(0.0200414 -5.2521e-05 0)
(0.0200502 -4.92496e-05 0)
(0.0200585 -4.62659e-05 0)
(0.0200662 -4.35534e-05 0)
(0.0200735 -4.10971e-05 0)
(0.0200804 -3.8884e-05 0)
(0.020087 -3.69016e-05 0)
(0.0200932 -3.51388e-05 0)
(0.0200991 -3.35862e-05 0)
(0.0201048 -3.22349e-05 0)
(0.0201103 -3.10771e-05 0)
(0.0201156 -3.01068e-05 0)
(0.0201207 -2.93188e-05 0)
(0.0201257 -2.87085e-05 0)
(0.0201306 -2.82729e-05 0)
(0.0201355 -2.80097e-05 0)
(0.0201403 -2.79185e-05 0)
(0.0201451 -2.79982e-05 0)
(0.02015 -2.82498e-05 0)
(0.0201549 -2.86756e-05 0)
(0.0201599 -2.92784e-05 0)
(0.020165 -3.0062e-05 0)