/*--------------------------------*- C++ -*----------------------------------*\
  =========                 |
  \\      /  F ield         | OpenFOAM: The Open Source CFD Toolbox
   \\    /   O peration     | Website:  https://openfoam.org
    \\  /    A nd           | Version:  dev
     \\/     M anipulation  |
\*---------------------------------------------------------------------------*/
FoamFile
{
    version     2.0;
    format      ascii;
    class       surfaceScalarField;
    location    "18";
    object      phi;
}
// * * * * * * * * * * * * * * * * * * * * * * * * * * * * * * * * * * * * * //

dimensions      [1 0 -1 0 0 0 0];

internalField   nonuniform List<scalar> 
15760
(
7.33784e-07
0.00115789
-5.07506e-06
0.00116442
-9.95884e-06
0.00116349
0.00114775
8.94397e-07
-2.99787e-06
0.00116088
-1.32249e-05
0.00117465
-2.60838e-05
0.00117635
0.00113949
-1.78293e-05
-7.08108e-06
0.00116796
-2.27284e-05
0.0011903
-4.53001e-05
0.00119892
0.00113582
-4.16238e-05
-9.66128e-06
0.00117763
-2.86874e-05
0.00120932
-5.74638e-05
0.0012277
0.00114465
-6.62954e-05
-7.50279e-06
0.00118513
-2.60571e-05
0.00122788
-5.67202e-05
0.00125836
0.00117056
-8.26351e-05
7.17988e-07
0.00118441
-1.06132e-05
0.00123921
-3.49684e-05
0.00128272
0.00121027
-7.46711e-05
1.61343e-05
0.00116828
1.96448e-05
0.0012357
1.20403e-05
0.00129032
0.00125006
-2.7756e-05
3.81171e-05
0.00113016
6.3737e-05
0.00121008
8.17574e-05
0.0012723
0.00127086
6.09568e-05
6.37514e-05
0.00106641
0.000116943
0.00115689
0.000167328
0.00122192
0.00125282
0.000185365
8.84434e-05
0.000977965
0.000170654
0.00107467
0.000254945
0.00113762
0.00118229
0.000325478
0.000106987
0.000870977
0.000212247
0.000969416
0.000322711
0.00102716
0.00107145
0.000433555
0.000115872
0.000755106
0.000231964
0.000853324
0.000355189
0.000903936
0.000938306
0.000488331
0.00011523
0.000639876
0.000228387
0.000740166
0.000348175
0.000784149
0.000804464
0.000482017
0.000107608
0.000532268
0.000208131
0.000639643
0.00031269
0.000679589
0.00068873
0.000428426
9.47358e-05
0.000437533
0.000179428
0.000554951
0.000265524
0.000593492
0.000597864
0.000356391
7.68922e-05
0.000360641
0.000147222
0.000484621
0.000217581
0.000523133
0.000526952
0.000288494
5.54529e-05
0.000305188
0.000113563
0.000426511
0.000172182
0.000464514
0.000469355
0.000229779
3.53272e-05
0.00026986
8.21235e-05
0.000379715
0.000131778
0.00041486
0.000420093
0.00018104
2.14307e-05
0.000248429
5.81516e-05
0.000342994
0.000100276
0.000372736
0.000376891
0.000143478
1.46044e-05
0.000233825
4.36971e-05
0.000313902
7.92534e-05
0.000337179
0.000339317
0.000116827
1.25436e-05
0.000221281
3.6556e-05
0.000289889
6.64735e-05
0.000307262
0.000307335
9.84553e-05
1.23744e-05
0.000208907
3.30187e-05
0.000269245
5.82573e-05
0.000282023
0.000280501
8.50911e-05
1.22916e-05
0.000196615
3.04619e-05
0.000251075
5.19564e-05
0.000260529
0.00025799
7.44682e-05
1.18143e-05
0.000184801
2.7948e-05
0.000234941
4.64556e-05
0.000242021
0.000238952
6.54929e-05
1.1059e-05
0.000173742
2.54156e-05
0.000220584
4.14759e-05
0.000225961
0.000222711
5.77171e-05
1.01874e-05
0.000163555
2.29653e-05
0.000207806
3.69637e-05
0.000211963
0.000208753
5.0922e-05
9.28812e-06
0.000154266
2.0653e-05
0.000196442
3.28841e-05
0.000199732
0.000196683
4.49541e-05
8.40474e-06
0.000145862
1.84972e-05
0.000186349
2.91995e-05
0.000189029
0.000186195
3.96874e-05
7.55998e-06
0.000138302
1.65022e-05
0.000177407
2.58721e-05
0.000179659
0.000177052
3.50153e-05
6.76332e-06
0.000131538
1.46622e-05
0.000169508
2.28623e-05
0.000171459
0.000169068
3.08464e-05
6.01991e-06
0.000125518
1.297e-05
0.000162558
2.01349e-05
0.000164294
0.000162097
2.7105e-05
5.32147e-06
0.000120197
1.14072e-05
0.000156472
1.76512e-05
0.00015805
0.000156024
2.37247e-05
4.66943e-06
0.000115527
9.96601e-06
0.000151176
1.53822e-05
0.000152634
0.000150754
2.06526e-05
4.06775e-06
0.00011146
8.64459e-06
0.000146599
1.33102e-05
0.000147969
0.000146214
1.78494e-05
3.50879e-06
0.000107951
7.42597e-06
0.000142682
1.14057e-05
0.000143989
0.000142348
1.52722e-05
2.98009e-06
0.000104971
6.2846e-06
0.000139377
9.63137e-06
0.000140642
0.000139103
1.28759e-05
2.47647e-06
0.000102494
5.20618e-06
0.000136647
7.96465e-06
0.000137884
0.000136437
1.06315e-05
1.99935e-06
0.000100495
4.18942e-06
0.000134457
6.399e-06
0.000135674
0.000134309
8.52629e-06
1.54991e-06
9.89451e-05
3.2343e-06
0.000132773
4.93032e-06
0.000133978
0.000132689
6.55062e-06
1.12646e-06
9.78186e-05
2.33693e-06
0.000131562
3.55109e-06
0.000132764
0.000131547
4.69332e-06
7.26715e-07
9.70919e-05
1.49228e-06
0.000130797
2.25325e-06
0.000132003
0.000130856
2.94426e-06
3.49462e-07
9.67424e-05
6.96142e-07
0.00013045
1.03034e-06
0.000131669
0.00013059
1.29591e-06
-7.46974e-09
9.67499e-05
-5.62759e-08
0.000130499
-1.22325e-07
0.000131735
0.000130724
-2.56237e-07
-3.44013e-07
9.70939e-05
-7.62934e-07
0.000130918
-1.20388e-06
0.000132176
0.000131233
-1.71268e-06
-6.57307e-07
9.77512e-05
-1.42111e-06
0.000131682
-2.21212e-06
0.000132967
0.000132092
-3.07169e-06
-9.49577e-07
9.87007e-05
-2.03368e-06
0.000132766
-3.14964e-06
0.000134083
0.000133278
-4.33502e-06
-1.22056e-06
9.99213e-05
-2.60019e-06
0.000134145
-4.01588e-06
0.000135498
0.000134764
-5.50202e-06
-1.46984e-06
0.000101391
-3.11996e-06
0.000135796
-4.80993e-06
0.000137188
0.000136525
-6.57143e-06
-1.69703e-06
0.000103088
-3.59241e-06
0.000137691
-5.5311e-06
0.000139127
0.000138536
-7.54216e-06
-1.90185e-06
0.00010499
-4.0172e-06
0.000139806
-6.17888e-06
0.000141289
0.000140771
-8.4134e-06
-2.08409e-06
0.000107074
-4.39419e-06
0.000142116
-6.75304e-06
0.000143648
0.000143203
-9.18477e-06
-2.24372e-06
0.000109318
-4.7235e-06
0.000144596
-7.25382e-06
0.000146178
0.000145805
-9.85651e-06
-2.38088e-06
0.000111699
-5.00555e-06
0.000147221
-7.68195e-06
0.000148854
0.000148553
-1.04296e-05
-2.4959e-06
0.000114195
-5.24116e-06
0.000149966
-8.03872e-06
0.000151652
0.00015142
-1.09058e-05
-2.5893e-06
0.000116784
-5.43152e-06
0.000152808
-8.32605e-06
0.000154546
0.000154382
-1.12878e-05
-2.66179e-06
0.000119446
-5.57822e-06
0.000155725
-8.54645e-06
0.000157515
0.000157414
-1.15789e-05
-2.71427e-06
0.00012216
-5.68322e-06
0.000158694
-8.70292e-06
0.000160534
0.000160495
-1.17835e-05
-2.74777e-06
0.000124908
-5.74878e-06
0.000161695
-8.79903e-06
0.000163585
0.000163602
-1.19063e-05
-2.7635e-06
0.000127671
-5.77742e-06
0.000164709
-8.83868e-06
0.000166646
0.000166716
-1.19528e-05
-2.76274e-06
0.000130434
-5.77188e-06
0.000167718
-8.82612e-06
0.0001697
0.000169819
-1.19288e-05
-2.74685e-06
0.000133181
-5.73506e-06
0.000170706
-8.76592e-06
0.000172731
0.000172894
-1.18406e-05
-2.71729e-06
0.000135898
-5.67004e-06
0.000173659
-8.66278e-06
0.000175724
0.000175926
-1.16947e-05
-2.67552e-06
0.000138574
-5.57988e-06
0.000176563
-8.52143e-06
0.000178665
0.000178902
-1.14975e-05
-2.62303e-06
0.000141197
-5.46765e-06
0.000179408
-8.34661e-06
0.000181544
0.000181811
-1.12555e-05
-2.56125e-06
0.000143758
-5.33638e-06
0.000182183
-8.14296e-06
0.000184351
0.000184643
-1.0975e-05
-2.49159e-06
0.000146249
-5.18897e-06
0.00018488
-7.91496e-06
0.000187077
0.00018739
-1.06621e-05
-2.41539e-06
0.000148665
-5.02823e-06
0.000187493
-7.66689e-06
0.000189715
0.000190046
-1.03227e-05
-2.33394e-06
0.000150999
-4.8568e-06
0.000190016
-7.4028e-06
0.000192261
0.000192605
-9.96218e-06
-2.2484e-06
0.000153247
-4.67712e-06
0.000192445
-7.12644e-06
0.000194711
0.000195064
-9.58566e-06
-2.15987e-06
0.000155407
-4.49147e-06
0.000194776
-6.84126e-06
0.00019706
0.000197421
-9.19777e-06
-2.06936e-06
0.000157476
-4.3019e-06
0.000197009
-6.55039e-06
0.000199309
0.000199673
-8.80276e-06
-1.97776e-06
0.000159454
-4.11028e-06
0.000199141
-6.25667e-06
0.000201455
0.000201821
-8.4044e-06
-1.88587e-06
0.00016134
-3.91825e-06
0.000201174
-5.96257e-06
0.0002035
0.000203864
-8.00603e-06
-1.7944e-06
0.000163134
-3.72725e-06
0.000203106
-5.67031e-06
0.000205443
0.000205805
-7.61057e-06
-1.70395e-06
0.000164838
-3.53854e-06
0.000204941
-5.38176e-06
0.000207286
0.000207643
-7.22053e-06
-1.61505e-06
0.000166453
-3.35319e-06
0.000206679
-5.09853e-06
0.000209031
0.000209383
-6.83805e-06
-1.52814e-06
0.000167981
-3.17209e-06
0.000208323
-4.82198e-06
0.000210681
0.000211026
-6.4649e-06
-1.44357e-06
0.000169425
-2.99597e-06
0.000209876
-4.5532e-06
0.000212238
0.000212575
-6.10253e-06
-1.36164e-06
0.000170787
-2.82542e-06
0.000211339
-4.29308e-06
0.000213706
0.000214034
-5.7521e-06
-1.28257e-06
0.000172069
-2.66093e-06
0.000212718
-4.04229e-06
0.000215087
0.000215406
-5.41448e-06
-1.20654e-06
0.000173276
-2.50282e-06
0.000214014
-3.80136e-06
0.000216386
0.000216695
-5.09032e-06
-1.13366e-06
0.000174409
-2.35133e-06
0.000215232
-3.5706e-06
0.000217605
0.000217905
-4.78006e-06
-1.06403e-06
0.000175473
-2.20661e-06
0.000216374
-3.35026e-06
0.000218749
0.000219038
-4.48395e-06
-9.97655e-07
0.000176471
-2.06873e-06
0.000217445
-3.1404e-06
0.000219821
0.0002201
-4.20209e-06
-9.34556e-07
0.000177406
-1.93769e-06
0.000218448
-2.94103e-06
0.000220824
0.000221094
-3.93445e-06
-8.74713e-07
0.00017828
-1.81344e-06
0.000219387
-2.75204e-06
0.000221763
0.000222022
-3.68086e-06
-8.18077e-07
0.000179098
-1.69588e-06
0.000220265
-2.57329e-06
0.00022264
0.00022289
-3.4411e-06
-7.64586e-07
0.000179863
-1.58486e-06
0.000221085
-2.40453e-06
0.00022346
0.0002237
-3.21484e-06
-7.14152e-07
0.000180577
-1.48022e-06
0.000221851
-2.24551e-06
0.000224225
0.000224457
-3.00171e-06
-6.66686e-07
0.000181244
-1.38175e-06
0.000222566
-2.09591e-06
0.000224939
0.000225162
-2.80128e-06
-6.22086e-07
0.000181866
-1.28926e-06
0.000223233
-1.95541e-06
0.000225605
0.00022582
-2.6131e-06
-5.80253e-07
0.000182446
-1.2025e-06
0.000223856
-1.82365e-06
0.000226226
0.000226433
-2.43668e-06
-5.41059e-07
0.000182987
-1.12125e-06
0.000224436
-1.70027e-06
0.000226805
0.000227004
-2.27152e-06
-5.04402e-07
0.000183491
-1.04525e-06
0.000224977
-1.5849e-06
0.000227345
0.000227536
-2.11713e-06
-4.70156e-07
0.000183962
-9.74284e-07
0.000225481
-1.47717e-06
0.000227848
0.000228032
-1.973e-06
-4.3821e-07
0.0001844
-9.0809e-07
0.000225951
-1.37671e-06
0.000228317
0.000228494
-1.83861e-06
-4.08457e-07
0.000184808
-8.46437e-07
0.000226389
-1.28315e-06
0.000228753
0.000228924
-1.71348e-06
-3.80777e-07
0.000185189
-7.89082e-07
0.000226797
-1.19613e-06
0.00022916
0.000229325
-1.59714e-06
-3.55064e-07
0.000185544
-7.35814e-07
0.000227178
-1.11532e-06
0.00022954
0.000229699
-1.48909e-06
-3.31207e-07
0.000185875
-6.86408e-07
0.000227533
-1.04038e-06
0.000229894
0.000230048
-1.38892e-06
-3.09116e-07
0.000186184
-6.40655e-07
0.000227865
-9.70982e-07
0.000230224
0.000230373
-1.29617e-06
-2.88684e-07
0.000186473
-5.98362e-07
0.000228174
-9.0683e-07
0.000230533
0.000230676
-1.21044e-06
-2.69831e-07
0.000186743
-5.59322e-07
0.000228464
-8.47634e-07
0.000230821
0.00023096
-1.13134e-06
-2.52462e-07
0.000186995
-5.23371e-07
0.000228735
-7.93116e-07
0.000231091
0.000231226
-1.0585e-06
-2.36501e-07
0.000187232
-4.9034e-07
0.000228988
-7.43022e-07
0.000231343
0.000231474
-9.91585e-07
-2.21863e-07
0.000187454
-4.60067e-07
0.000229227
-6.97113e-07
0.00023158
0.000231707
-9.30248e-07
-2.08493e-07
0.000187662
-4.32396e-07
0.000229451
-6.55155e-07
0.000231803
0.000231926
-8.74208e-07
-1.96307e-07
0.000187858
-4.07198e-07
0.000229661
-6.16949e-07
0.000232013
0.000232132
-8.23175e-07
-1.85256e-07
0.000188044
-3.84344e-07
0.000229861
-5.82295e-07
0.000232211
0.000232327
-7.76892e-07
-1.75278e-07
0.000188219
-3.63723e-07
0.000230049
-5.51021e-07
0.000232398
0.000232511
-7.35126e-07
-1.66331e-07
0.000188385
-3.45228e-07
0.000230228
-5.22962e-07
0.000232576
0.000232686
-6.97653e-07
-1.58356e-07
0.000188544
-3.28755e-07
0.000230398
-4.97985e-07
0.000232745
0.000232852
-6.6428e-07
-1.51317e-07
0.000188695
-3.14229e-07
0.000230561
-4.75948e-07
0.000232907
0.000233011
-6.34844e-07
-1.45177e-07
0.00018884
-3.01566e-07
0.000230718
-4.56738e-07
0.000233062
0.000233163
-6.09178e-07
-1.39906e-07
0.00018898
-2.90707e-07
0.000230868
-4.40257e-07
0.000233211
0.00023331
-5.87154e-07
-1.35477e-07
0.000189116
-2.81594e-07
0.000231014
-4.26423e-07
0.000233356
0.000233453
-5.68655e-07
-1.31868e-07
0.000189247
-2.74184e-07
0.000231157
-4.15157e-07
0.000233497
0.000233591
-5.53592e-07
-1.29062e-07
0.000189376
-2.68433e-07
0.000231296
-4.06417e-07
0.000233635
0.000233727
-5.41887e-07
-1.2704e-07
0.000189503
-2.64328e-07
0.000231433
-4.00145e-07
0.000233771
0.00023386
-5.33486e-07
-1.25797e-07
0.000189629
-2.6183e-07
0.000231569
-3.96324e-07
0.000233906
0.000233992
-5.28344e-07
-1.25328e-07
0.000189755
-2.60949e-07
0.000231705
-3.94937e-07
0.00023404
0.000234123
-5.26454e-07
-1.25643e-07
0.00018988
-2.61672e-07
0.000231841
-3.95996e-07
0.000234174
0.000234255
-5.278e-07
-1.26736e-07
0.000190007
-2.64022e-07
0.000231978
-3.99493e-07
0.000234309
0.000234388
-5.32418e-07
-1.28618e-07
0.000190136
-2.68013e-07
0.000232118
-4.05476e-07
0.000234447
0.000234523
-5.40334e-07
-1.31302e-07
0.000190267
-2.73673e-07
0.00023226
-4.13979e-07
0.000234587
0.000234661
-5.51616e-07
-1.3481e-07
0.000190402
-2.81038e-07
0.000232406
-4.25068e-07
0.000234731
0.000234802
-5.66344e-07
-1.39157e-07
0.000190541
-2.90171e-07
0.000232557
-4.38821e-07
0.00023488
0.000234948
-5.84612e-07
-1.44389e-07
0.000190685
-3.0113e-07
0.000232714
-4.55334e-07
0.000235034
0.000235099
-6.06555e-07
-1.50537e-07
0.000190836
-3.13988e-07
0.000232878
-4.74718e-07
0.000235195
0.000235257
-6.32323e-07
-1.57639e-07
0.000190993
-3.2884e-07
0.000233049
-4.97103e-07
0.000235363
0.000235421
-6.62085e-07
-1.65746e-07
0.000191159
-3.45783e-07
0.000233229
-5.22643e-07
0.00023554
0.000235595
-6.96047e-07
-1.74916e-07
0.000191334
-3.64924e-07
0.000233419
-5.51517e-07
0.000235726
0.000235778
-7.34432e-07
-1.85209e-07
0.000191519
-3.86403e-07
0.00023362
-5.83907e-07
0.000235924
0.000235971
-7.77508e-07
-1.96694e-07
0.000191716
-4.10368e-07
0.000233834
-6.20044e-07
0.000236134
0.000236177
-8.25548e-07
-2.09452e-07
0.000191925
-4.36975e-07
0.000234061
-6.60165e-07
0.000236357
0.000236396
-8.78897e-07
-2.23576e-07
0.000192149
-4.66403e-07
0.000234304
-7.04539e-07
0.000236595
0.000236629
-9.37902e-07
-2.3916e-07
0.000192388
-4.98856e-07
0.000234564
-7.53481e-07
0.00023685
0.000236878
-1.00297e-06
-2.56302e-07
0.000192644
-5.34567e-07
0.000234842
-8.07314e-07
0.000237122
0.000237146
-1.07454e-06
-2.75136e-07
0.000192919
-5.73767e-07
0.000235141
-8.66419e-07
0.000237415
0.000237432
-1.15312e-06
-2.95781e-07
0.000193215
-6.16742e-07
0.000235462
-9.31202e-07
0.000237729
0.00023774
-1.23923e-06
-3.18393e-07
0.000193534
-6.63787e-07
0.000235807
-1.00211e-06
0.000238068
0.000238072
-1.33349e-06
-3.4313e-07
0.000193877
-7.1524e-07
0.000236179
-1.07965e-06
0.000238432
0.000238429
-1.43653e-06
-3.70175e-07
0.000194247
-7.71462e-07
0.00023658
-1.16437e-06
0.000238825
0.000238813
-1.54911e-06
-3.99726e-07
0.000194647
-8.32859e-07
0.000237014
-1.25686e-06
0.000239249
0.000239229
-1.672e-06
-4.31992e-07
0.000195079
-8.9987e-07
0.000237481
-1.3578e-06
0.000239707
0.000239677
-1.80609e-06
-4.67212e-07
0.000195546
-9.72993e-07
0.000237987
-1.46791e-06
0.000240202
0.000240161
-1.95235e-06
-5.05658e-07
0.000196051
-1.05276e-06
0.000238534
-1.58801e-06
0.000240737
0.000240685
-2.11185e-06
-5.47615e-07
0.000196599
-1.13979e-06
0.000239126
-1.719e-06
0.000241316
0.000241252
-2.28576e-06
-5.93416e-07
0.000197192
-1.23472e-06
0.000239768
-1.86185e-06
0.000241944
0.000241865
-2.47539e-06
-6.43416e-07
0.000197836
-1.33829e-06
0.000240463
-2.01766e-06
0.000242623
0.00024253
-2.68218e-06
-6.9801e-07
0.000198534
-1.45132e-06
0.000241216
-2.18764e-06
0.000243359
0.00024325
-2.9077e-06
-7.57649e-07
0.000199292
-1.57469e-06
0.000242033
-2.37311e-06
0.000244158
0.000244031
-3.15372e-06
-8.22815e-07
0.000200114
-1.70941e-06
0.00024292
-2.57555e-06
0.000245024
0.000244877
-3.42218e-06
-8.94061e-07
0.000201008
-1.85657e-06
0.000243882
-2.79662e-06
0.000245964
0.000245796
-3.71524e-06
-9.71996e-07
0.00020198
-2.01743e-06
0.000244927
-3.03813e-06
0.000246985
0.000246793
-4.0353e-06
-1.05731e-06
0.000203038
-2.19333e-06
0.000246063
-3.30215e-06
0.000248093
0.000247876
-4.38503e-06
-1.15076e-06
0.000204188
-2.38585e-06
0.000247299
-3.59092e-06
0.000249298
0.000249052
-4.76742e-06
-1.25322e-06
0.000205442
-2.59668e-06
0.000248642
-3.90701e-06
0.000250609
0.000250331
-5.1858e-06
-1.36565e-06
0.000206807
-2.82778e-06
0.000250104
-4.25327e-06
0.000252034
0.000251722
-5.64389e-06
-1.48915e-06
0.000208296
-3.08131e-06
0.000251696
-4.63291e-06
0.000253586
0.000253235
-6.14588e-06
-1.62493e-06
0.000209921
-3.35973e-06
0.000253431
-5.04953e-06
0.000255276
0.000254882
-6.69647e-06
-1.77442e-06
0.000211696
-3.66581e-06
0.000255322
-5.50721e-06
0.000257117
0.000256676
-7.30097e-06
-1.9392e-06
0.000213635
-4.0027e-06
0.000257386
-6.01057e-06
0.000259125
0.00025863
-7.96538e-06
-2.12107e-06
0.000215756
-4.37398e-06
0.000259639
-6.56485e-06
0.000261316
0.000260762
-8.6965e-06
-2.32214e-06
0.000218078
-4.78374e-06
0.0002621
-7.17603e-06
0.000263708
0.000263088
-9.50207e-06
-2.54477e-06
0.000220623
-5.23665e-06
0.000264792
-7.85092e-06
0.000266322
0.000265628
-1.03909e-05
-2.79172e-06
0.000223415
-5.73809e-06
0.000267739
-8.59735e-06
0.000269182
0.000268404
-1.13731e-05
-3.06618e-06
0.000226481
-6.29424e-06
0.000270967
-9.42432e-06
0.000272312
0.00027144
-1.24602e-05
-3.37181e-06
0.000229853
-6.91226e-06
0.000274507
-1.03422e-05
0.000275742
0.000274763
-1.36656e-05
-3.71292e-06
0.000233565
-7.60044e-06
0.000278395
-1.1363e-05
0.000279504
0.000278405
-1.50046e-05
-4.09452e-06
0.00023766
-8.3685e-06
0.000282669
-1.25008e-05
0.000283636
0.000282399
-1.64953e-05
-4.52253e-06
0.000242182
-9.22779e-06
0.000287374
-1.37719e-05
0.00028818
0.000286786
-1.81586e-05
-5.00395e-06
0.000247186
-1.01917e-05
0.000292562
-1.51955e-05
0.000293184
0.000291609
-2.00188e-05
-5.54705e-06
0.000252733
-1.12761e-05
0.000298291
-1.67945e-05
0.000298703
0.000296919
-2.21049e-05
-6.16167e-06
0.000258895
-1.24997e-05
0.000304629
-1.85958e-05
0.000304799
0.000302775
-2.44511e-05
-6.85969e-06
0.000265755
-1.38853e-05
0.000311654
-2.06316e-05
0.000311545
0.000309241
-2.70979e-05
-7.6554e-06
0.00027341
-1.54599e-05
0.000319459
-2.29407e-05
0.000319026
0.000316394
-3.00939e-05
-8.56631e-06
0.000281977
-1.72566e-05
0.000328149
-2.55698e-05
0.000327339
0.000324322
-3.34978e-05
-9.6132e-06
0.00029159
-1.93154e-05
0.000337851
-2.8576e-05
0.0003366
0.000333127
-3.73805e-05
-1.0824e-05
0.000302414
-2.16861e-05
0.000348714
-3.20291e-05
0.000346943
0.000342926
-4.18287e-05
-1.22264e-05
0.00031464
-2.44299e-05
0.000360917
-3.60159e-05
0.000358529
0.000353859
-4.69486e-05
-1.38736e-05
0.000328514
-2.76241e-05
0.000374667
-4.0644e-05
0.000371549
0.000366088
-5.28732e-05
-1.579e-05
0.000344304
-3.13659e-05
0.000390243
-4.60501e-05
0.000386233
0.000379804
-5.97657e-05
-1.80966e-05
0.0003624
-3.57788e-05
0.000407925
-5.24054e-05
0.00040286
0.000395236
-6.7838e-05
-2.07872e-05
0.000383188
-4.1029e-05
0.000428167
-5.9935e-05
0.000421766
0.000412651
-7.73494e-05
-2.41102e-05
0.000407298
-4.73171e-05
0.000451374
-6.89256e-05
0.000443374
0.000432375
-8.86498e-05
-2.80451e-05
0.000435343
-5.49437e-05
0.000478273
-7.97627e-05
0.000468193
0.000454785
-0.000102173
-3.29934e-05
0.000468336
-6.42632e-05
0.000509543
-9.2952e-05
0.000496882
0.000480347
-0.000118514
-3.90266e-05
0.000507363
-7.58269e-05
0.000546343
-0.000109193
0.000530248
0.000509592
-0.000138438
-4.67628e-05
0.000554126
-9.03343e-05
0.000589914
-0.000129428
0.000569342
0.00054317
-0.000163007
-5.65552e-05
0.000610681
-0.000108856
0.000642215
-0.000155006
0.000615491
0.000581796
-0.000193632
-6.94132e-05
0.000680094
-0.000132853
0.000705655
-0.000187812
0.00067045
0.000626299
-0.000232315
-8.65235e-05
0.000766618
-0.000164641
0.000783772
-0.00023061
0.000736419
0.000677481
-0.000281792
-0.000109435
0.000876052
-0.000207317
0.000881655
-0.000287538
0.00081664
0.000736051
-0.000346108
-0.000142103
0.00101816
-0.000266578
0.00100613
-0.000364599
0.000914661
0.000802189
-0.000430737
-0.000185827
0.00120398
-0.000348586
0.00116889
-0.000472424
0.0010385
0.000875061
-0.000545297
-0.000247191
0.00145117
-0.000465473
0.00138717
-0.000623571
0.0011966
0.000951466
-0.000699976
-0.000350441
0.00180161
-0.000640973
0.0016777
-0.000854684
0.00141031
0.00102958
-0.0009328
-0.000404269
0.00220588
-0.00081054
0.00208397
-0.00115136
0.00175113
0.00112704
-0.00124882
-0.000773361
-0.00141337
-0.00179581
-0.00196449
8.55374e-05
-8.4643e-05
0.000190083
-0.000122375
0.000311586
-0.000163127
0.000447354
-0.000202063
0.000584931
-0.000220212
0.000710017
-0.000199757
0.000817979
-0.000135719
0.000916382
-3.74474e-05
0.000994877
0.00010687
0.00101597
0.000304388
0.000969361
0.000480159
0.000878519
0.000579173
0.000765946
0.000594591
0.000657184
0.000537189
0.000570005
0.00044357
0.000503389
0.000355109
0.000449706
0.000283462
0.000403477
0.000227269
0.00036242
0.000184536
0.00032645
0.000152797
0.000295827
0.000129078
0.000270228
0.00011069
0.000248876
9.58203e-05
0.000230927
8.34423e-05
0.000215676
7.2968e-05
0.000202588
6.40104e-05
0.000191263
5.6279e-05
0.000181405
4.9545e-05
0.000172792
4.36282e-05
0.000165254
3.8385e-05
0.000158658
3.3701e-05
0.0001529
2.94828e-05
0.000147897
2.56555e-05
0.000143587
2.21598e-05
0.000139918
1.89407e-05
0.000136846
1.59481e-05
0.000134329
1.31482e-05
0.000132335
1.05209e-05
0.000130834
8.05141e-06
0.000129801
5.72565e-06
0.000129213
3.53226e-06
0.000129046
1.46327e-06
0.000129276
-4.8587e-07
0.000129879
-2.31627e-06
0.000130834
-4.02627e-06
0.000132115
-5.6162e-06
0.000133698
-7.0851e-06
0.000135558
-8.43108e-06
0.000137668
-9.65234e-06
0.000140002
-1.07475e-05
0.000142533
-1.17159e-05
0.000145234
-1.25576e-05
0.000148078
-1.32738e-05
0.00015104
-1.38669e-05
0.000154092
-1.43401e-05
0.000157211
-1.46979e-05
0.000160373
-1.49457e-05
0.000163556
-1.50898e-05
0.000166741
-1.51373e-05
0.000169908
-1.50957e-05
0.00017304
-1.49732e-05
0.000176124
-1.4778e-05
0.000179145
-1.45185e-05
0.000182092
-1.4203e-05
0.000184957
-1.38395e-05
0.000187731
-1.3436e-05
0.000190408
-1.29997e-05
0.000192983
-1.25377e-05
0.000195454
-1.20564e-05
0.000197818
-1.15616e-05
0.000200073
-1.10586e-05
0.000202221
-1.05523e-05
0.000204262
-1.00467e-05
0.000206197
-9.54548e-06
0.000208028
-9.05181e-06
0.000209758
-8.56828e-06
0.000211391
-8.09707e-06
0.000212928
-7.63995e-06
0.000214374
-7.19831e-06
0.000215733
-6.7732e-06
0.000217008
-6.36537e-06
0.000218203
-5.97534e-06
0.000219323
-5.60337e-06
0.00022037
-5.24953e-06
0.000221349
-4.91375e-06
0.000222264
-4.5958e-06
0.000223118
-4.29535e-06
0.000223916
-4.01196e-06
0.000224659
-3.74514e-06
0.000225352
-3.49433e-06
0.000225998
-3.25895e-06
0.0002266
-3.03836e-06
0.00022716
-2.83194e-06
0.000227682
-2.63903e-06
0.000228168
-2.45899e-06
0.00022862
-2.29118e-06
0.000229042
-2.13497e-06
0.000229435
-1.98976e-06
0.0002298
-1.85495e-06
0.000230141
-1.72996e-06
0.00023046
-1.61428e-06
0.000230757
-1.50737e-06
0.000231034
-1.40873e-06
0.000231293
-1.31793e-06
0.000231536
-1.2345e-06
0.000231764
-1.15805e-06
0.000231978
-1.0882e-06
0.000232179
-1.0246e-06
0.000232369
-9.66926e-07
0.000232549
-9.14872e-07
0.00023272
-8.68183e-07
0.000232882
-8.26604e-07
0.000233037
-7.89917e-07
0.000233186
-7.57933e-07
0.000233329
-7.30483e-07
0.000233468
-7.07426e-07
0.000233603
-6.88644e-07
0.000233735
-6.7404e-07
0.000233865
-6.63539e-07
0.000233994
-6.57099e-07
0.000234122
-6.54695e-07
0.000234251
-6.56329e-07
0.00023438
-6.62023e-07
0.000234512
-6.71824e-07
0.000234646
-6.85803e-07
0.000234784
-7.0406e-07
0.000234926
-7.26723e-07
0.000235073
-7.53952e-07
0.000235227
-7.85933e-07
0.000235388
-8.22871e-07
0.000235557
-8.65027e-07
0.000235735
-9.12677e-07
0.000235924
-9.66139e-07
0.000236124
-1.02578e-06
0.000236337
-1.09199e-06
0.000236564
-1.16523e-06
0.000236807
-1.24598e-06
0.000237067
-1.33481e-06
0.000237347
-1.43231e-06
0.000237647
-1.53916e-06
0.000237969
-1.6561e-06
0.000238317
-1.78394e-06
0.000238691
-1.92357e-06
0.000239095
-2.07598e-06
0.000239531
-2.24226e-06
0.000240002
-2.42361e-06
0.000240512
-2.62132e-06
0.000241063
-2.83687e-06
0.00024166
-3.07185e-06
0.000242305
-3.32803e-06
0.000243005
-3.60735e-06
0.000243763
-3.91197e-06
0.000244585
-4.24428e-06
0.000245477
-4.60693e-06
0.000246445
-5.00287e-06
0.000247495
-5.43534e-06
0.000248635
-5.90802e-06
0.000249875
-6.42495e-06
0.000251221
-6.99067e-06
0.000252686
-7.61031e-06
0.000254279
-8.28956e-06
0.000256013
-9.03487e-06
0.000257901
-9.85351e-06
0.000259958
-1.07537e-05
0.000262201
-1.17448e-05
0.000264648
-1.28375e-05
0.000267318
-1.40438e-05
0.000270236
-1.53776e-05
0.000273425
-1.68549e-05
0.000276915
-1.84943e-05
0.000280736
-2.03168e-05
0.000284925
-2.23475e-05
0.000289522
-2.46152e-05
0.000294571
-2.7154e-05
0.000300123
-3.0004e-05
0.000306238
-3.32125e-05
0.00031298
-3.68362e-05
0.000320425
-4.09428e-05
0.000328659
-4.56139e-05
0.000337778
-5.09483e-05
0.000347897
-5.70672e-05
0.000359142
-6.41183e-05
0.000371663
-7.22866e-05
0.000385623
-8.17986e-05
0.000401222
-9.29475e-05
0.000418662
-0.00010609
0.000438194
-0.000121705
0.000460059
-0.000140379
0.000484531
-0.000162909
0.000511827
-0.000190303
0.000542124
-0.000223928
0.000575369
-0.00026556
0.000611188
-0.000317611
0.000648357
-0.000383277
0.000684465
-0.000466845
0.000713249
-0.00057408
0.000725173
-0.0007119
0.000682783
-0.00089041
0.000543694
-0.00110973
-0.0014208
7.30456e-05
-0.000157689
0.000162676
-0.000212005
0.000265356
-0.000265807
0.000376493
-0.000313201
0.000490812
-0.000334532
0.00060011
-0.000309055
0.0006867
-0.00022231
0.000741449
-9.21963e-05
0.00077908
6.92404e-05
0.000797782
0.000285687
0.000776868
0.000501072
0.000726124
0.000629916
0.000655354
0.00066536
0.000575693
0.00061685
0.000506998
0.000512265
0.000453574
0.000408534
0.000409211
0.000327825
0.000369835
0.000266646
0.000334307
0.000220064
0.000303128
0.000183976
0.000276635
0.000155571
0.000254447
0.000132878
0.000235814
0.000114453
0.00022
9.92572e-05
0.000206423
8.65448e-05
0.000194657
7.57758e-05
0.000184391
6.65456e-05
0.000175389
5.85464e-05
0.000167475
5.15421e-05
0.000160512
4.53488e-05
0.000154391
3.98214e-05
0.00014903
3.48443e-05
0.000144361
3.03245e-05
0.000140333
2.61873e-05
0.000136906
2.23683e-05
0.00013404
1.88134e-05
0.000131704
1.54848e-05
0.000129869
1.23561e-05
0.000128512
9.40798e-06
0.000127613
6.6248e-06
0.00012715
3.99474e-06
0.000127104
1.50987e-06
0.000127452
-8.34043e-07
0.000128174
-3.03785e-06
0.000129247
-5.0997e-06
0.000130649
-7.0179e-06
0.000132354
-8.79069e-06
0.000134338
-1.04151e-05
0.000136574
-1.18882e-05
0.000139035
-1.32081e-05
0.000141692
-1.43733e-05
0.000144518
-1.53838e-05
0.000147485
-1.6241e-05
0.000150566
-1.69475e-05
0.000153734
-1.75075e-05
0.000156962
-1.79265e-05
0.000160228
-1.82113e-05
0.000163508
-1.83698e-05
0.000166781
-1.84107e-05
0.000170029
-1.83435e-05
0.000173234
-1.81785e-05
0.000176382
-1.79257e-05
0.000179459
-1.75957e-05
0.000182455
-1.71986e-05
0.000185359
-1.67444e-05
0.000188166
-1.62427e-05
0.000190869
-1.57027e-05
0.000193464
-1.51327e-05
0.000195949
-1.45407e-05
0.000198321
-1.39336e-05
0.00020058
-1.3318e-05
0.000202727
-1.26994e-05
0.000204763
-1.2083e-05
0.000206691
-1.14729e-05
0.000208512
-1.0873e-05
0.00021023
-1.02862e-05
0.000211848
-9.71517e-06
0.00021337
-9.16189e-06
0.0002148
-8.62796e-06
0.000216141
-8.11459e-06
0.000217398
-7.62259e-06
0.000218575
-7.1525e-06
0.000219677
-6.70458e-06
0.000220706
-6.27885e-06
0.000221667
-5.87515e-06
0.000222565
-5.49317e-06
0.000223402
-5.13244e-06
0.000224182
-4.79242e-06
0.00022491
-4.47246e-06
0.000225587
-4.17188e-06
0.000226218
-3.88991e-06
0.000226806
-3.6258e-06
0.000227352
-3.37876e-06
0.000227861
-3.14797e-06
0.000228335
-2.93267e-06
0.000228776
-2.73206e-06
0.000229186
-2.54539e-06
0.000229568
-2.37189e-06
0.000229924
-2.21088e-06
0.000230256
-2.06164e-06
0.000230565
-1.92353e-06
0.000230854
-1.79593e-06
0.000231123
-1.67823e-06
0.000231375
-1.56989e-06
0.000231611
-1.47037e-06
0.000231832
-1.37919e-06
0.00023204
-1.29589e-06
0.000232235
-1.22005e-06
0.00023242
-1.15128e-06
0.000232594
-1.08923e-06
0.00023276
-1.03356e-06
0.000232917
-9.8399e-07
0.000233067
-9.40257e-07
0.000233211
-9.02127e-07
0.00023335
-8.69399e-07
0.000233485
-8.41904e-07
0.000233616
-8.19499e-07
0.000233744
-8.02058e-07
0.00023387
-7.8951e-07
0.000233994
-7.81802e-07
0.000234119
-7.78893e-07
0.000234243
-7.80793e-07
0.000234368
-7.87517e-07
0.000234496
-7.99128e-07
0.000234626
-8.15708e-07
0.000234759
-8.37373e-07
0.000234897
-8.64282e-07
0.000235039
-8.96611e-07
0.000235188
-9.34585e-07
0.000235343
-9.78464e-07
0.000235507
-1.02853e-06
0.000235679
-1.08511e-06
0.000235862
-1.14862e-06
0.000236056
-1.21945e-06
0.000236262
-1.29809e-06
0.000236482
-1.38506e-06
0.000236716
-1.48096e-06
0.000236968
-1.58643e-06
0.000237238
-1.7022e-06
0.000237528
-1.82905e-06
0.00023784
-1.96787e-06
0.000238175
-2.11961e-06
0.000238537
-2.28532e-06
0.000238927
-2.46618e-06
0.000239349
-2.66346e-06
0.000239803
-2.87857e-06
0.000240295
-3.11306e-06
0.000240827
-3.36866e-06
0.000241402
-3.64722e-06
0.000242025
-3.95084e-06
0.0002427
-4.28181e-06
0.00024343
-4.64265e-06
0.000244222
-5.03618e-06
0.000245081
-5.46549e-06
0.000246012
-5.93402e-06
0.000247022
-6.4456e-06
0.000248119
-7.00449e-06
0.000249309
-7.61543e-06
0.000250602
-8.28371e-06
0.000252007
-9.01526e-06
0.000253534
-9.81672e-06
0.000255195
-1.06956e-05
0.000257002
-1.16602e-05
0.000258968
-1.27201e-05
0.000261109
-1.38861e-05
0.000263442
-1.51704e-05
0.000265985
-1.65868e-05
0.000268759
-1.81514e-05
0.000271786
-1.98822e-05
0.000275092
-2.18003e-05
0.000278705
-2.39297e-05
0.000282656
-2.62986e-05
0.000286981
-2.89396e-05
0.000291717
-3.18906e-05
0.00029691
-3.51963e-05
0.000302607
-3.89094e-05
0.000308862
-4.30921e-05
0.000315738
-4.78186e-05
0.000323302
-5.31776e-05
0.000331629
-5.92758e-05
0.000340804
-6.62419e-05
0.000350919
-7.42332e-05
0.000362073
-8.34408e-05
0.000374377
-9.41023e-05
0.000387936
-0.000106507
0.000402869
-0.000121023
0.000419263
-0.000138099
0.000437199
-0.000158315
0.000456673
-0.000182384
0.000477599
-0.000211229
0.000499665
-0.000245993
0.000522249
-0.000288145
0.00054413
-0.000339492
0.000563125
-0.000402272
0.000575406
-0.000479126
0.000574225
-0.0005729