/*--------------------------------*- C++ -*----------------------------------*\
  =========                 |
  \\      /  F ield         | OpenFOAM: The Open Source CFD Toolbox
   \\    /   O peration     | Website:  https://openfoam.org
    \\  /    A nd           | Version:  dev
     \\/     M anipulation  |
\*---------------------------------------------------------------------------*/
FoamFile
{
    version     2.0;
    format      ascii;
    class       volVectorField;
    location    "18";
    object      U;
}
// * * * * * * * * * * * * * * * * * * * * * * * * * * * * * * * * * * * * * //

dimensions      [0 1 -1 0 0 0 0];

internalField   nonuniform List<vector> 
8000
(
(0.0997607 -3.00135e-05 0)
(0.100108 -0.000214281 0)
(0.100091 -0.000454511 0)
(0.0998747 -9.66787e-05 0)
(0.09992 -7.47707e-05 0)
(0.100787 -0.000744428 0)
(0.100805 -0.00180991 0)
(0.0989721 -0.000596742 0)
(0.100406 -0.000141077 0)
(0.101928 -0.00125262 0)
(0.102283 -0.00345396 0)
(0.0979966 -0.00161515 0)
(0.101124 -0.000161431 0)
(0.103449 -0.00143583 0)
(0.104506 -0.00475541 0)
(0.0979473 -0.00242139 0)
(0.102006 3.15447e-05 0)
(0.105142 -0.000967145 0)
(0.107147 -0.00499005 0)
(0.099284 -0.00276485 0)
(0.102346 0.000309196 0)
(0.10657 0.000428303 0)
(0.109706 -0.00357747 0)
(0.102125 -0.00167344 0)
(0.101836 0.000807438 0)
(0.107099 0.0027221 0)
(0.111377 -0.000149364 0)
(0.106083 0.00173741 0)
(0.0997296 0.00156323 0)
(0.10606 0.00564166 0)
(0.11123 0.00524485 0)
(0.109296 0.00768363 0)
(0.095493 0.0025971 0)
(0.102862 0.008786 0)
(0.108482 0.0118371 0)
(0.110013 0.0159148 0)
(0.0889385 0.00384873 0)
(0.0971019 0.0116441 0)
(0.10271 0.0183266 0)
(0.106552 0.025147 0)
(0.0803346 0.00511112 0)
(0.0888677 0.013665 0)
(0.0941244 0.0230349 0)
(0.0984244 0.0329249 0)
(0.0703891 0.00607564 0)
(0.0789419 0.0144921 0)
(0.0836505 0.0250814 0)
(0.0872074 0.0367078 0)
(0.0600093 0.00651144 0)
(0.068478 0.0141188 0)
(0.072554 0.0245571 0)
(0.0749275 0.0358992 0)
(0.0502798 0.00635069 0)
(0.0591008 0.0129299 0)
(0.0626698 0.0222485 0)
(0.0637646 0.0319503 0)
(0.0413976 0.00562338 0)
(0.0511065 0.0113073 0)
(0.0544646 0.019099 0)
(0.0548885 0.0268609 0)
(0.0338509 0.0043754 0)
(0.0444852 0.00937338 0)
(0.0478176 0.0157165 0)
(0.0481001 0.0218997 0)
(0.0281732 0.00284422 0)
(0.0390097 0.00714422 0)
(0.0423433 0.0123271 0)
(0.0427129 0.0174171 0)
(0.0244338 0.00151919 0)
(0.0345408 0.00494356 0)
(0.0377357 0.00920378 0)
(0.0381923 0.0135594 0)
(0.0221675 0.00072771 0)
(0.0309976 0.0032792 0)
(0.0338187 0.00676674 0)
(0.03424 0.0105627 0)
(0.0207273 0.000415229 0)
(0.0282074 0.00235403 0)
(0.0304874 0.0052055 0)
(0.0307595 0.0084948 0)
(0.0196058 0.000370014 0)
(0.0259512 0.00198928 0)
(0.0276797 0.00434083 0)
(0.027766 0.00714664 0)
(0.0185448 0.000407439 0)
(0.0240519 0.00187801 0)
(0.0253248 0.00384533 0)
(0.0252499 0.00621415 0)
(0.0174789 0.00043011 0)
(0.0223951 0.00180605 0)
(0.0233318 0.00347864 0)
(0.0231453 0.00548431 0)
(0.0164351 0.00042378 0)
(0.020925 0.00170366 0)
(0.0216225 0.00314682 0)
(0.0213723 0.00486068 0)
(0.0154471 0.000401813 0)
(0.0196163 0.00157585 0)
(0.0201425 0.0028349 0)
(0.0198647 0.00431024 0)
(0.0145312 0.000373835 0)
(0.0184508 0.00143901 0)
(0.0188541 0.00254525 0)
(0.0185725 0.00382059 0)
(0.0136926 0.000343879 0)
(0.0174136 0.00130281 0)
(0.017729 0.00227879 0)
(0.0174576 0.00338393 0)
(0.012931 0.000313775 0)
(0.0164913 0.00117182 0)
(0.0167448 0.00203458 0)
(0.0164906 0.00299403 0)
(0.0122442 0.000284511 0)
(0.0156733 0.00104832 0)
(0.0158831 0.00181123 0)
(0.0156485 0.00264528 0)
(0.0116278 0.000256521 0)
(0.0149491 0.000933099 0)
(0.0151285 0.00160695 0)
(0.0149133 0.00233231 0)
(0.0110783 0.000230122 0)
(0.014311 0.000826463 0)
(0.0144687 0.00142008 0)
(0.0142712 0.00205043 0)
(0.0105896 0.000204771 0)
(0.0137502 0.000727435 0)
(0.0138925 0.00124839 0)
(0.0137109 0.00179514 0)
(0.0101605 0.000180862 0)
(0.0132612 0.000635863 0)
(0.0133915 0.00109041 0)
(0.0132234 0.00156282 0)
(0.00978495 0.00015875 0)
(0.012837 0.00055183 0)
(0.0129584 0.000945583 0)
(0.0128018 0.00135109 0)
(0.00945876 0.000138022 0)
(0.0124717 0.000474319 0)
(0.0125867 0.000812084 0)
(0.0124404 0.00115668 0)
(0.00917956 0.000118075 0)
(0.0121611 0.000401646 0)
(0.0122718 0.000687215 0)
(0.0121348 0.000975874 0)
(0.00894499 9.88068e-05 0)
(0.0119018 0.000332884 0)
(0.0120095 0.000569377 0)
(0.0118809 0.000806419 0)
(0.00875267 8.04226e-05 0)
(0.0116905 0.000268025 0)
(0.0117962 0.000458294 0)
(0.011675 0.000647518 0)
(0.00860024 6.30388e-05 0)
(0.0115242 0.000207142 0)
(0.0116285 0.000353886 0)
(0.0115142 0.000498534 0)
(0.00848542 4.65695e-05 0)
(0.0114001 0.000149995 0)
(0.0115038 0.000255734 0)
(0.0113957 0.000358602 0)
(0.00840606 3.0935e-05 0)
(0.0113155 9.62302e-05 0)
(0.0114193 0.000163299 0)
(0.0113174 0.000226907 0)
(0.00836024 1.61266e-05 0)
(0.0112682 4.55593e-05 0)
(0.0113727 7.61317e-05 0)
(0.0112767 0.000102831 0)
(0.00834591 2.09028e-06 0)
(0.0112558 -2.45841e-06 0)
(0.0113617 -6.12075e-06 0)
(0.0112717 -1.40175e-05 0)
(0.00836155 -1.14458e-05 0)
(0.0112766 -4.75296e-05 0)
(0.0113842 -8.3319e-05 0)
(0.0113 -0.00012365 0)
(0.00840528 -2.3995e-05 0)
(0.0113283 -8.94864e-05 0)
(0.011438 -0.000155253 0)
(0.0113596 -0.000225906 0)
(0.00847503 -3.57593e-05 0)
(0.0114085 -0.000128566 0)
(0.0115208 -0.000222171 0)
(0.0114484 -0.000320978 0)
(0.00856907 -4.67231e-05 0)
(0.0115153 -0.000164739 0)
(0.0116305 -0.000284027 0)
(0.0115642 -0.000408813 0)
(0.00868554 -5.68584e-05 0)
(0.0116465 -0.000197956 0)
(0.011765 -0.000340754 0)
(0.0117048 -0.000489315 0)
(0.00882256 -6.61412e-05 0)
(0.0118 -0.000228177 0)
(0.0119221 -0.000392296 0)
(0.0118681 -0.000562413 0)
(0.0089782 -7.45511e-05 0)
(0.0119735 -0.000255375 0)
(0.0120994 -0.000438616 0)
(0.0120517 -0.000628051 0)
(0.00915052 -8.20709e-05 0)
(0.0121649 -0.000279535 0)
(0.0122949 -0.000479704 0)
(0.0122535 -0.000686207 0)
(0.00933758 -8.86927e-05 0)
(0.0123719 -0.00030066 0)
(0.0125063 -0.000515572 0)
(0.0124711 -0.000736899 0)
(0.00953742 -9.44167e-05 0)
(0.0125926 -0.000318775 0)
(0.0127314 -0.000546273 0)
(0.0127024 -0.000780202 0)
(0.00974813 -9.92514e-05 0)
(0.0128246 -0.000333929 0)
(0.0129679 -0.000571895 0)
(0.012945 -0.000816249 0)
(0.00996781 -0.000103213 0)
(0.013066 -0.000346197 0)
(0.0132139 -0.000592573 0)
(0.0131969 -0.000845236 0)
(0.0101946 -0.000106327 0)
(0.0133148 -0.000355679 0)
(0.0134672 -0.000608482 0)
(0.0134558 -0.000867418 0)
(0.0104268 -0.000108625 0)
(0.0135691 -0.000362497 0)
(0.0137258 -0.000619836 0)
(0.0137199 -0.000883106 0)
(0.0106627 -0.000110148 0)
(0.0138269 -0.000366793 0)
(0.013988 -0.000626885 0)
(0.0139872 -0.000892662 0)
(0.0109007 -0.000110942 0)
(0.0140867 -0.000368728 0)
(0.014252 -0.000629906 0)
(0.0142559 -0.000896486 0)
(0.0111394 -0.000111059 0)
(0.0143468 -0.000368475 0)
(0.0145161 -0.000629199 0)
(0.0145244 -0.000895013 0)
(0.0113772 -0.000110552 0)
(0.0146058 -0.000366217 0)
(0.0147788 -0.000625085 0)
(0.0147911 -0.00088871 0)
(0.0116132 -0.000109479 0)
(0.0148623 -0.000362151 0)
(0.0150389 -0.000617899 0)
(0.0150548 -0.000878057 0)
(0.011846 -0.000107901 0)
(0.0151152 -0.000356471 0)
(0.0152951 -0.000607978 0)
(0.0153142 -0.000863538 0)
(0.0120747 -0.000105876 0)
(0.0153634 -0.000349375 0)
(0.0155464 -0.000595656 0)
(0.0155682 -0.000845635 0)
(0.0122985 -0.000103464 0)
(0.015606 -0.000341054 0)
(0.0157918 -0.000581265 0)
(0.0158161 -0.000824821 0)
(0.0125166 -0.000100721 0)
(0.0158422 -0.000331695 0)
(0.0160306 -0.000565122 0)
(0.0160569 -0.000801552 0)
(0.0127284 -9.77043e-05 0)
(0.0160714 -0.000321477 0)
(0.0162622 -0.000547533 0)
(0.0162901 -0.000776264 0)
(0.0129333 -9.44642e-05 0)
(0.0162931 -0.000310568 0)
(0.016486 -0.000528787 0)
(0.0165152 -0.000749367 0)
(0.0131311 -9.105e-05 0)
(0.0165067 -0.000299126 0)
(0.0167015 -0.000509151 0)
(0.0167317 -0.000721243 0)
(0.0133213 -8.75066e-05 0)
(0.0167122 -0.000287296 0)
(0.0169087 -0.000488873 0)
(0.0169396 -0.000692241 0)
(0.0135038 -8.38755e-05 0)
(0.0169091 -0.00027521 0)
(0.0171071 -0.000468177 0)
(0.0171384 -0.00066268 0)
(0.0136785 -8.01939e-05 0)
(0.0170975 -0.000262986 0)
(0.0172967 -0.000447265 0)
(0.0173283 -0.000632845 0)
(0.0138452 -7.64952e-05 0)
(0.0172772 -0.00025073 0)
(0.0174775 -0.000426316 0)
(0.0175091 -0.000602988 0)
(0.014004 -7.28086e-05 0)
(0.0174483 -0.000238536 0)
(0.0176496 -0.000405487 0)
(0.017681 -0.00057333 0)
(0.0141549 -6.91591e-05 0)
(0.0176108 -0.000226483 0)
(0.0178129 -0.000384914 0)
(0.017844 -0.000544063 0)
(0.0142981 -6.55683e-05 0)
(0.0177649 -0.000214642 0)
(0.0179677 -0.000364712 0)
(0.0179984 -0.000515347 0)
(0.0144337 -6.20547e-05 0)
(0.0179108 -0.000203069 0)
(0.0181142 -0.000344979 0)
(0.0181443 -0.000487319 0)
(0.0145619 -5.86332e-05 0)
(0.0180487 -0.000191812 0)
(0.0182525 -0.000325794 0)
(0.018282 -0.000460088 0)
(0.0146829 -5.53161e-05 0)
(0.0181788 -0.000180909 0)
(0.018383 -0.00030722 0)
(0.0184118 -0.000433742 0)
(0.0147969 -5.21128e-05 0)
(0.0183014 -0.00017039 0)
(0.0185059 -0.000289308 0)
(0.0185339 -0.000408351 0)
(0.0149043 -4.90307e-05 0)
(0.0184168 -0.000160278 0)
(0.0186215 -0.000272094 0)
(0.0186487 -0.000383964 0)
(0.0150052 -4.6075e-05 0)
(0.0185252 -0.000150587 0)
(0.0187301 -0.000255605 0)
(0.0187564 -0.000360613 0)
(0.0151 -4.32496e-05 0)
(0.018627 -0.000141328 0)
(0.018832 -0.000239855 0)
(0.0188575 -0.000338321 0)
(0.015189 -4.05556e-05 0)
(0.0187225 -0.000132505 0)
(0.0189276 -0.000224852 0)
(0.0189522 -0.000317096 0)
(0.0152723 -3.79935e-05 0)
(0.0188119 -0.000124119 0)
(0.019017 -0.000210595 0)
(0.0190408 -0.000296935 0)
(0.0153503 -3.55627e-05 0)
(0.0188957 -0.000116166 0)
(0.0191008 -0.000197079 0)
(0.0191237 -0.000277829 0)
(0.0154233 -3.32615e-05 0)
(0.018974 -0.00010864 0)
(0.0191791 -0.000184292 0)
(0.0192012 -0.00025976 0)
(0.0154916 -3.10873e-05 0)
(0.0190473 -0.000101533 0)
(0.0192523 -0.000172219 0)
(0.0192736 -0.000242705 0)
(0.0155553 -2.90369e-05 0)
(0.0191157 -9.4833e-05 0)
(0.0193206 -0.00016084 0)
(0.0193411 -0.000226637 0)
(0.0156149 -2.71068e-05 0)
(0.0191795 -8.85281e-05 0)
(0.0193844 -0.000150134 0)
(0.0194041 -0.000211523 0)
(0.0156705 -2.52929e-05 0)
(0.0192391 -8.26046e-05 0)
(0.019444 -0.000140078 0)
(0.0194629 -0.00019733 0)
(0.0157223 -2.35911e-05 0)
(0.0192947 -7.70486e-05 0)
(0.0194995 -0.000130647 0)
(0.0195177 -0.000184022 0)
(0.0157707 -2.19963e-05 0)
(0.0193466 -7.18441e-05 0)
(0.0195512 -0.000121814 0)
(0.0195688 -0.000171562 0)
(0.0158158 -2.05045e-05 0)
(0.0193949 -6.69766e-05 0)
(0.0195995 -0.000113554 0)
(0.0196163 -0.000159913 0)
(0.0158578 -1.91105e-05 0)
(0.01944 -6.24301e-05 0)
(0.0196444 -0.000105841 0)
(0.0196607 -0.000149036 0)
(0.015897 -1.78097e-05 0)
(0.019482 -5.81893e-05 0)
(0.0196863 -9.86467e-05 0)
(0.019702 -0.000138893 0)
(0.0159335 -1.6598e-05 0)
(0.0195211 -5.42395e-05 0)
(0.0197253 -9.19464e-05 0)
(0.0197404 -0.000129448 0)
(0.0159675 -1.54704e-05 0)
(0.0195576 -5.05651e-05 0)
(0.0197617 -8.57142e-05 0)
(0.0197763 -0.000120665 0)
(0.0159992 -1.44228e-05 0)
(0.0195916 -4.71522e-05 0)
(0.0197956 -7.99261e-05 0)
(0.0198097 -0.000112508 0)
(0.0160288 -1.34506e-05 0)
(0.0196234 -4.39864e-05 0)
(0.0198272 -7.45578e-05 0)
(0.0198408 -0.000104945 0)
(0.0160564 -1.25501e-05 0)
(0.019653 -4.10547e-05 0)
(0.0198567 -6.95867e-05 0)
(0.0198699 -9.79416e-05 0)
(0.0160822 -1.17168e-05 0)
(0.0196806 -3.83443e-05 0)
(0.0198843 -6.49913e-05 0)
(0.019897 -9.14679e-05 0)
(0.0161063 -1.09476e-05 0)
(0.0197064 -3.58426e-05 0)
(0.01991 -6.07503e-05 0)
(0.0199223 -8.54947e-05 0)
(0.0161288 -1.02386e-05 0)
(0.0197306 -3.35387e-05 0)
(0.0199341 -5.68446e-05 0)
(0.019946 -7.99937e-05 0)
(0.0161499 -9.5869e-06 0)
(0.0197532 -3.14217e-05 0)
(0.0199566 -5.32558e-05 0)
(0.0199681 -7.49397e-05 0)
(0.0161696 -8.98887e-06 0)
(0.0197744 -2.94811e-05 0)
(0.0199777 -4.99668e-05 0)
(0.0199889 -7.03075e-05 0)
(0.0161882 -8.44218e-06 0)
(0.0197944 -2.77078e-05 0)
(0.0199975 -4.69607e-05 0)
(0.0200084 -6.60746e-05 0)
(0.0162056 -7.9433e-06 0)
(0.0198131 -2.60927e-05 0)
(0.0200162 -4.42235e-05 0)
(0.0200267 -6.222e-05 0)
(0.0162221 -7.49038e-06 0)
(0.0198308 -2.46279e-05 0)
(0.0200338 -4.17408e-05 0)
(0.020044 -5.87241e-05 0)
(0.0162376 -7.08098e-06 0)
(0.0198475 -2.33062e-05 0)
(0.0200504 -3.95005e-05 0)
(0.0200603 -5.55692e-05 0)
(0.0162524 -6.71344e-06 0)
(0.0198633 -2.21209e-05 0)
(0.0200661 -3.74907e-05 0)
(0.0200758 -5.27386e-05 0)
(0.0162664 -6.38525e-06 0)
(0.0198784 -2.1065e-05 0)
(0.0200811 -3.57012e-05 0)
(0.0200905 -5.02184e-05 0)
(0.0162797 -6.09474e-06 0)
(0.0198928 -2.01338e-05 0)
(0.0200953 -3.41228e-05 0)
(0.0201045 -4.79952e-05 0)
(0.0162925 -5.84036e-06 0)
(0.0199065 -1.93221e-05 0)
(0.020109 -3.27471e-05 0)
(0.0201179 -4.60571e-05 0)
(0.0163048 -5.62094e-06 0)
(0.0199198 -1.8626e-05 0)
(0.0201221 -3.1567e-05 0)
(0.0201308 -4.43942e-05 0)
(0.0163166 -5.4356e-06 0)
(0.0199326 -1.80419e-05 0)
(0.0201348 -3.05766e-05 0)
(0.0201433 -4.29979e-05 0)
(0.0163282 -5.28345e-06 0)
(0.019945 -1.7567e-05 0)
(0.0201471 -2.97706e-05 0)
(0.0201554 -4.1861e-05 0)
(0.0163394 -5.16365e-06 0)
(0.0199571 -1.71984e-05 0)
(0.0201592 -2.91452e-05 0)
(0.0201672 -4.09785e-05 0)
(0.0163505 -5.0752e-06 0)
(0.0199691 -1.6935e-05 0)
(0.020171 -2.86977e-05 0)
(0.0201788 -4.03454e-05 0)
(0.0163614 -5.01774e-06 0)
(0.0199808 -1.67749e-05 0)
(0.0201826 -2.84254e-05 0)
(0.0201902 -3.99591e-05 0)
(0.0163722 -4.99105e-06 0)
(0.0199925 -1.67183e-05 0)
(0.0201942 -2.83282e-05 0)
(0.0202016 -3.98183e-05 0)
(0.016383 -4.99573e-06 0)
(0.0200043 -1.67652e-05 0)
(0.0202057 -2.84059e-05 0)
(0.0202129 -3.9923e-05 0)
(0.0163939 -5.0317e-06 0)
(0.020016 -1.69161e-05 0)
(0.0202174 -2.86591e-05 0)
(0.0202244 -4.02746e-05 0)
(0.0164049 -5.09929e-06 0)
(0.020028 -1.71723e-05 0)
(0.0202291 -2.90904e-05 0)
(0.0202359 -4.0876e-05 0)
(0.0164161 -5.19888e-06 0)
(0.0200401 -1.75354e-05 0)
(0.0202411 -2.97028e-05 0)
(0.0202476 -4.17319e-05 0)
(0.0164276 -5.33111e-06 0)
(0.0200525 -1.8008e-05 0)
(0.0202534 -3.05005e-05 0)
(0.0202597 -4.28486e-05 0)
(0.0164394 -5.49653e-06 0)
(0.0200654 -1.85936e-05 0)
(0.020266 -3.14897e-05 0)
(0.020272 -4.42333e-05 0)
(0.0164516 -5.69709e-06 0)
(0.0200786 -1.92965e-05 0)
(0.020279 -3.26771e-05 0)
(0.0202848 -4.58962e-05 0)
(0.0164643 -5.93402e-06 0)
(0.0200924 -2.01214e-05 0)
(0.0202926 -3.40704e-05 0)
(0.0202981 -4.78484e-05 0)
(0.0164776 -6.20885e-06 0)
(0.0201068 -2.1074e-05 0)
(0.0203068 -3.56796e-05 0)
(0.0203121 -5.0103e-05 0)
(0.0164915 -6.52359e-06 0)
(0.020122 -2.21607e-05 0)
(0.0203217 -3.75154e-05 0)
(0.0203266 -5.26756e-05 0)
(0.0165062 -6.8803e-06 0)
(0.0201379 -2.33887e-05 0)
(0.0203373 -3.95902e-05 0)
(0.020342 -5.55834e-05 0)
(0.0165217 -7.28128e-06 0)
(0.0201548 -2.47666e-05 0)
(0.0203539 -4.19182e-05 0)
(0.0203582 -5.88461e-05 0)
(0.0165382 -7.72927e-06 0)
(0.0201727 -2.63041e-05 0)
(0.0203714 -4.45155e-05 0)
(0.0203754 -6.24851e-05 0)
(0.0165557 -8.22756e-06 0)
(0.0201917 -2.80111e-05 0)
(0.0203901 -4.73991e-05 0)
(0.0203937 -6.65258e-05 0)
(0.0165743 -8.78012e-06 0)
(0.0202119 -2.98998e-05 0)
(0.0204099 -5.05883e-05 0)
(0.0204132 -7.09947e-05 0)
(0.0165943 -9.39069e-06 0)
(0.0202336 -3.19828e-05 0)
(0.0204312 -5.41057e-05 0)
(0.020434 -7.59233e-05 0)
(0.0166156 -1.0063e-05 0)
(0.0202568 -3.42745e-05 0)
(0.0204539 -5.7975e-05 0)
(0.0204563 -8.13447e-05 0)
(0.0166385 -1.08023e-05 0)
(0.0202816 -3.67908e-05 0)
(0.0204783 -6.22231e-05 0)
(0.0204801 -8.72966e-05 0)
(0.0166631 -1.16131e-05 0)
(0.0203083 -3.95492e-05 0)
(0.0205044 -6.68797e-05 0)
(0.0205058 -9.382e-05 0)
(0.0166896 -1.25016e-05 0)
(0.020337 -4.25693e-05 0)
(0.0205326 -7.19771e-05 0)
(0.0205333 -0.00010096 0)
(0.0167181 -1.34744e-05 0)
(0.020368 -4.58727e-05 0)
(0.0205628 -7.75516e-05 0)
(0.020563 -0.000108767 0)
(0.0167488 -1.45387e-05 0)
(0.0204013 -4.9483e-05 0)
(0.0205955 -8.36423e-05 0)
(0.0205949 -0.000117296 0)
(0.016782 -1.57026e-05 0)
(0.0204372 -5.34263e-05 0)
(0.0206307 -9.02929e-05 0)
(0.0206294 -0.000126608 0)
(0.0168178 -1.69744e-05 0)
(0.0204761 -5.77309e-05 0)
(0.0206687 -9.75514e-05 0)
(0.0206666 -0.000136768 0)
(0.0168566 -1.83636e-05 0)
(0.020518 -6.24285e-05 0)
(0.0207097 -0.000105471 0)
(0.0207068 -0.000147852 0)
(0.0168985 -1.98811e-05 0)
(0.0205634 -6.75544e-05 0)
(0.0207541 -0.000114109 0)
(0.0207502 -0.00015994 0)
(0.0169439 -2.15386e-05 0)
(0.0206125 -7.31472e-05 0)
(0.0208022 -0.000123532 0)
(0.0207972 -0.000173122 0)
(0.016993 -2.33495e-05 0)
(0.0206656 -7.92497e-05 0)
(0.0208541 -0.00013381 0)
(0.0208481 -0.000187497 0)
(0.0170463 -2.53281e-05 0)
(0.0207232 -8.59094e-05 0)
(0.0209104 -0.000145021 0)
(0.0209032 -0.000203174 0)
(0.0171041 -2.74906e-05 0)
(0.0207856 -9.31783e-05 0)
(0.0209714 -0.000157254 0)
(0.0209628 -0.000220274 0)
(0.0171669 -2.98551e-05 0)
(0.0208533 -0.000101115 0)
(0.0210376 -0.000170604 0)
(0.0210275 -0.000238931 0)
(0.017235 -3.24415e-05 0)
(0.0209267 -0.000109784 0)
(0.0211093 -0.000185179 0)
(0.0210976 -0.000259293 0)
(0.0173089 -3.5272e-05 0)
(0.0210063 -0.000119257 0)
(0.0211871 -0.000201097 0)
(0.0211736 -0.000281524 0)
(0.0173893 -3.83717e-05 0)
(0.0210928 -0.000129614 0)
(0.0212716 -0.000218492 0)
(0.0212562 -0.000305807 0)
(0.0174768 -4.17686e-05 0)
(0.0211868 -0.000140945 0)
(0.0213633 -0.000237512 0)
(0.0213458 -0.000332348 0)
(0.0175719 -4.54945e-05 0)
(0.021289 -0.000153351 0)
(0.021463 -0.000258321 0)
(0.0214432 -0.000361373 0)
(0.0176755 -4.95852e-05 0)
(0.0214001 -0.000166943 0)
(0.0215714 -0.000281105 0)
(0.0215489 -0.000393136 0)
(0.0177883 -5.4081e-05 0)
(0.0215209 -0.000181849 0)
(0.0216893 -0.00030607 0)
(0.021664 -0.000427923 0)
(0.0179113 -5.90272e-05 0)
(0.0216525 -0.00019821 0)
(0.0218175 -0.00033345 0)
(0.0217891 -0.000466055 0)
(0.0180454 -6.44749e-05 0)
(0.0217959 -0.000216185 0)
(0.0219572 -0.000363508 0)
(0.0219252 -0.000507891 0)
(0.0181918 -7.04832e-05 0)
(0.0219521 -0.000235959 0)
(0.0221093 -0.00039654 0)
(0.0220734 -0.000553837 0)
(0.0183518 -7.71183e-05 0)
(0.0221224 -0.000257735 0)
(0.0222751 -0.000432884 0)
(0.0222349 -0.000604355 0)
(0.0185267 -8.44573e-05 0)
(0.0223084 -0.00028175 0)
(0.022456 -0.00047292 0)
(0.022411 -0.000659965 0)
(0.0187181 -9.25881e-05 0)
(0.0225115 -0.000308273 0)
(0.0226534 -0.000517087 0)
(0.022603 -0.000721263 0)
(0.0189277 -0.000101613 0)
(0.0227334 -0.00033761 0)
(0.0228691 -0.000565883 0)
(0.0228126 -0.000788925 0)
(0.0191576 -0.000111648 0)
(0.0229763 -0.000370117 0)
(0.0231049 -0.000619879 0)
(0.0230416 -0.000863729 0)
(0.0194099 -0.000122831 0)
(0.0232422 -0.000406202 0)
(0.0233628 -0.000679735 0)
(0.0232919 -0.000946568 0)
(0.0196871 -0.00013532 0)
(0.0235337 -0.000446338 0)
(0.0236454 -0.00074621 0)
(0.0235658 -0.00103847 0)
(0.0199922 -0.000149301 0)
(0.0238536 -0.000491075 0)
(0.0239552 -0.000820188 0)
(0.0238658 -0.00114063 0)
(0.0203284 -0.000164991 0)
(0.0242051 -0.000541057 0)
(0.0242952 -0.000902697 0)
(0.0241947 -0.00125443 0)
(0.0206994 -0.000182648 0)
(0.0245918 -0.000597041 0)
(0.0246688 -0.000994938 0)
(0.0245557 -0.0013815 0)
(0.0211096 -0.000202576 0)
(0.0250178 -0.000659928 0)
(0.02508 -0.00109832 0)
(0.0249523 -0.00152374 0)
(0.0215638 -0.000225143 0)
(0.0254878 -0.000730762 0)
(0.0255331 -0.00121453 0)
(0.0253888 -0.00168338 0)
(0.0220679 -0.000250789 0)
(0.0260074 -0.000810791 0)
(0.0260332 -0.00134557 0)
(0.0258696 -0.00186309 0)
(0.0226284 -0.000280046 0)
(0.0265827 -0.000901519 0)
(0.0265861 -0.00149384 0)
(0.0264002 -0.00206604 0)
(0.0232531 -0.000313552 0)
(0.0272211 -0.00100475 0)
(0.0271986 -0.00166219 0)
(0.0269866 -0.00229602 0)
(0.0239513 -0.000352099 0)
(0.0279311 -0.00112271 0)
(0.0278785 -0.00185412 0)
(0.0276359 -0.00255763 0)
(0.0247336 -0.000396623 0)
(0.0287227 -0.00125804 0)
(0.028635 -0.00207386 0)
(0.0283563 -0.00285644 0)
(0.0256129 -0.0004484 0)
(0.0296076 -0.00141414 0)
(0.0294787 -0.00232664 0)
(0.0291572 -0.00319929 0)
(0.0266046 -0.000508671 0)
(0.0306001 -0.0015949 0)
(0.0304225 -0.00261895 0)
(0.0300497 -0.0035946 0)
(0.0277273 -0.000579917 0)
(0.0317168 -0.00180602 0)
(0.0314813 -0.00295886 0)
(0.0310467 -0.00405289 0)
(0.0290031 -0.000663146 0)
(0.0329783 -0.00205295 0)
(0.0326734 -0.00335661 0)
(0.0321635 -0.0045873 0)
(0.0304604 -0.000763955 0)
(0.0344088 -0.00234627 0)
(0.0340204 -0.00382508 0)
(0.0334181 -0.00521467 0)
(0.0321323 -0.000882133 0)
(0.0360396 -0.00269339 0)
(0.035549 -0.0043814 0)
(0.034832 -0.00595621 0)
(0.0340625 -0.00102859 0)
(0.0379079 -0.00311333 0)
(0.0372916 -0.00504735 0)
(0.0364306 -0.00683993 0)
(0.0363041 -0.00120351 0)
(0.0400618 -0.00361963 0)
(0.0392885 -0.00585257 0)
(0.0382444 -0.00790193 0)
(0.0389276 -0.00142345 0)
(0.0425619 -0.00424409 0)
(0.0415898 -0.00683605 0)
(0.04031 -0.00919074 0)
(0.0420217 -0.00169395 0)
(0.0454872 -0.00501621 0)
(0.0442587 -0.00805214 0)
(0.0426706 -0.0107711 0)
(0.0457089 -0.00204079 0)
(0.0489407 -0.00599247 0)
(0.0473754 -0.00957517 0)
(0.0453781 -0.012732 0)
(0.0501433 -0.00248295 0)
(0.05306 -0.00723885 0)
(0.0510438 -0.0115117 0)
(0.048493 -0.0151958 0)
(0.0555685 -0.0030631 0)
(0.0580327 -0.00886318 0)
(0.0553947 -0.0140138 0)
(0.0520843 -0.0183359 0)
(0.0622195 -0.0038399 0)
(0.0641155 -0.0110286 0)
(0.0606151 -0.0173067 0)
(0.0562312 -0.0223972 0)
(0.0707919 -0.00488322 0)
(0.0716867 -0.013935 0)
(0.0668996 -0.0217257 0)
(0.0609986 -0.0277481 0)
(0.081044 -0.00635349 0)
(0.0812043 -0.0180526 0)
(0.0747181 -0.0277889 0)
(0.0665066 -0.0348962 0)
(0.0966636 -0.00847988 0)
(0.0937599 -0.0236687 0)
(0.0840644 -0.0362804 0)
(0.0725546 -0.0447745 0)
(0.110619 -0.0109593 0)
(0.108907 -0.0316741 0)
(0.0972095 -0.0484456 0)
(0.0801473 -0.0583643 0)
(0.146738 -0.0166019 0)
(0.134719 -0.0448788 0)
(0.111591 -0.0665954 0)
(0.085197 -0.079066 0)
(0.158126 -0.017486 0)
(0.152184 -0.0532135 0)
(0.135539 -0.0886308 0)
(0.104889 -0.107041 0)
(0.247247 -0.0343454 0)
(0.226319 -0.0988208 0)
(0.177062 -0.149394 0)
(0.102108 -0.169178 0)
(0.00631516 -0.00148521 0)
(0.0120714 -0.00458018 0)
(0.0211929 -0.00779526 0)
(0.0322998 -0.010822 0)
(0.0443272 -0.0124285 0)
(0.0557234 -0.0112048 0)
(0.0656788 -0.00626478 0)
(0.0744633 0.00232114 0)
(0.0830382 0.0144902 0)
(0.0887773 0.028959 0)
(0.0877284 0.040148 0)
(0.0810155 0.0467219 0)
(0.0711155 0.0470627 0)
(0.060845 0.0419964 0)
(0.0522024 0.0347236 0)
(0.0458417 0.0279612 0)
(0.0408584 0.0223043 0)
(0.0366408 0.0177449 0)
(0.0329025 0.0142542 0)
(0.0295805 0.0117165 0)
(0.026716 0.00988677 0)
(0.024312 0.00850578 0)
(0.0223105 0.00739639 0)
(0.020635 0.00646634 0)
(0.0192176 0.005671 0)
(0.0180059 0.00498462 0)
(0.0169605 0.00438839 0)
(0.0160524 0.00386672 0)
(0.01526 0.0034069 0)
(0.0145666 0.00299853 0)
(0.0139595 0.00263322 0)
(0.0134287 0.002304 0)
(0.0129662 0.00200528 0)
(0.0125658 0.00173267 0)
(0.0122227 0.00148189 0)
(0.0119331 0.00124882 0)
(0.011693 0.00103068 0)
(0.0114992 0.000826054 0)
(0.0113492 0.000633917 0)
(0.0112406 0.000453159 0)
(0.0111714 0.000282817 0)
(0.0111394 0.000122215 0)
(0.0111427 -2.90335e-05 0)
(0.0111792 -0.00017101 0)
(0.011247 -0.000303567 0)
(0.011344 -0.000426804 0)
(0.0114681 -0.000540653 0)
(0.0116172 -0.000644983 0)
(0.0117889 -0.000739675 0)
(0.0119812 -0.000824638 0)
(0.0121915 -0.000899824 0)
(0.0124177 -0.000965251 0)
(0.0126574 -0.00102101 0)
(0.0129083 -0.00106728 0)
(0.0131681 -0.00110432 0)
(0.0134347 -0.00113246 0)
(0.013706 -0.00115212 0)
(0.0139801 -0.00116378 0)
(0.0142552 -0.00116798 0)
(0.0145294 -0.00116529 0)
(0.0148014 -0.00115633 0)
(0.0150698 -0.00114174 0)
(0.0153334 -0.00112215 0)
(0.015591 -0.00109821 0)
(0.0158419 -0.00107052 0)
(0.0160853 -0.0010397 0)
(0.0163205 -0.00100631 0)
(0.0165472 -0.000970896 0)
(0.016765 -0.000933944 0)
(0.0169736 -0.000895912 0)
(0.0171729 -0.000857213 0)
(0.017363 -0.000818214 0)
(0.0175437 -0.00077924 0)
(0.0177152 -0.000740576 0)
(0.0178777 -0.000702464 0)
(0.0180313 -0.00066511 0)
(0.0181763 -0.000628686 0)
(0.0183131 -0.00059333 0)
(0.0184418 -0.000559154 0)
(0.0185627 -0.000526241 0)
(0.0186763 -0.000494653 0)
(0.0187829 -0.00046443 0)
(0.0188827 -0.000435594 0)
(0.0189762 -0.000408155 0)
(0.0190636 -0.000382107 0)
(0.0191452 -0.000357435 0)
(0.0192215 -0.000334113 0)
(0.0192928 -0.00031211 0)
(0.0193592 -0.000291388 0)
(0.0194211 -0.000271905 0)
(0.0194789 -0.000253616 0)
(0.0195327 -0.000236473 0)
(0.0195828 -0.000220428 0)
(0.0196294 -0.00020543 0)
(0.0196729 -0.000191431 0)
(0.0197134 -0.00017838 0)
(0.019751 -0.00016623 0)
(0.0197861 -0.000154935 0)
(0.0198188 -0.000144446 0)
(0.0198493 -0.000134722 0)
(0.0198777 -0.00012572 0)
(0.0199043 -0.0001174 0)
(0.019929 -0.000109723 0)
(0.0199522 -0.000102655 0)
(0.0199738 -9.61616e-05 0)
(0.0199941 -9.02105e-05 0)
(0.0200132 -8.47732e-05 0)
(0.0200311 -7.98219e-05 0)
(0.0200479 -7.53318e-05 0)
(0.0200639 -7.12797e-05 0)
(0.020079 -6.76447e-05 0)
(0.0200933 -6.44076e-05 0)
(0.020107 -6.15518e-05 0)
(0.0201201 -5.9062e-05 0)
(0.0201327 -5.69254e-05 0)
(0.0201449 -5.51309e-05 0)
(0.0201567 -5.36696e-05 0)
(0.0201682 -5.25338e-05 0)
(0.0201795 -5.1718e-05 0)
(0.0201906 -5.12183e-05 0)
(0.0202017 -5.10336e-05 0)
(0.0202128 -5.11632e-05 0)
(0.0202239 -5.16097e-05 0)
(0.0202352 -5.23762e-05 0)
(0.0202466 -5.34685e-05 0)
(0.0202583 -5.48947e-05 0)
(0.0202704 -5.66642e-05 0)
(0.0202829 -5.87898e-05 0)
(0.0202958 -6.1286e-05 0)
(0.0203094 -6.41692e-05 0)
(0.0203236 -6.74593e-05 0)
(0.0203386 -7.11779e-05 0)
(0.0203544 -7.53505e-05 0)
(0.0203711 -8.00046e-05 0)
(0.020389 -8.51721e-05 0)
(0.0204079 -9.08882e-05 0)
(0.0204282 -9.71908e-05 0)
(0.0204499 -0.000104124 0)
(0.0204731 -0.000111734 0)
(0.0204981 -0.000120075 0)
(0.0205249 -0.000129203 0)
(0.0205538 -0.000139183 0)
(0.0205849 -0.000150084 0)
(0.0206184 -0.000161984 0)
(0.0206546 -0.000174968 0)
(0.0206937 -0.000189129 0)
(0.020736 -0.00020457 0)
(0.0207817 -0.000221406 0)
(0.0208312 -0.000239761 0)
(0.0208847 -0.000259774 0)
(0.0209427 -0.000281599 0)
(0.0210055 -0.000305403 0)
(0.0210736 -0.000331376 0)
(0.0211474 -0.000359725 0)
(0.0212275 -0.000390681 0)
(0.0213145 -0.000424502 0)
(0.0214089 -0.000461474 0)
(0.0215114 -0.000501917 0)
(0.0216228 -0.000546189 0)
(0.0217439 -0.000594694 0)
(0.0218757 -0.000647881 0)
(0.022019 -0.00070626 0)
(0.0221751 -0.000770406 0)
(0.022345 -0.000840971 0)
(0.0225303 -0.000918694 0)
(0.0227323 -0.00100442 0)
(0.0229527 -0.00109911 0)
(0.0231935 -0.00120387 0)
(0.0234565 -0.00131997 0)
(0.0237442 -0.00144888 0)
(0.0240592 -0.0015923 0)
(0.0244042 -0.00175223 0)
(0.0247826 -0.00193098 0)
(0.0251981 -0.00213129 0)
(0.0256547 -0.00235638 0)
(0.0261572 -0.00261008 0)
(0.0267109 -0.00289699 0)
(0.0273219 -0.00322259 0)
(0.0279971 -0.00359354 0)
(0.0287444 -0.00401793 0)
(0.0295729 -0.0045057 0)
(0.030493 -0.0050691 0)
(0.0315165 -0.00572337 0)
(0.0326571 -0.00648768 0)
(0.0339305 -0.00738626 0)
(0.035354 -0.0084501 0)
(0.0369477 -0.00971926 0)
(0.0387329 -0.0112458 0)
(0.0407329 -0.0130985 0)
(0.04297 -0.0153685 0)
(0.0454634 -0.0181785 0)
(0.0482227 -0.0216953 0)
(0.0512359 -0.0261467 0)
(0.0544498 -0.0318511 0)
(0.0577204 -0.0392429 0)
(0.0607615 -0.0489843 0)
(0.0629071 -0.0618499 0)
(0.0625644 -0.0797923 0)
(0.0600217 -0.103701 0)
(0.0178856 -0.144898 0)
(0.00441094 -0.0124891 0)
(0.0101501 -0.0167092 0)
(0.0184383 -0.0206654 0)
(0.0275603 -0.0242924 0)
(0.0369401 -0.0260005 0)
(0.0466013 -0.0239224 0)
(0.0555077 -0.0174341 0)
(0.0618461 -0.00797802 0)
(0.0654449 0.00536948 0)
(0.0689205 0.0244074 0)
(0.0696879 0.0424168 0)
(0.0661866 0.0525052 0)
(0.0602138 0.055089 0)
(0.0528067 0.0505154 0)
(0.0460212 0.0417586 0)
(0.0409982 0.0333222 0)
(0.0370173 0.0266233 0)
(0.0334693 0.0214845 0)
(0.0302451 0.0175964 0)
(0.0273698 0.0146534 0)
(0.0248954 0.0123883 0)
(0.0228183 0.010595 0)
(0.0210797 0.00913806 0)
(0.0196108 0.00793217 0)
(0.0183552 0.00692018 0)
(0.0172707 0.00606096 0)
(0.0163265 0.00532333 0)
(0.0154999 0.00468336 0)
(0.0147738 0.0041226 0)
(0.0141347 0.00362661 0)
(0.0135725 0.00318401 0)
(0.0130789 0.00278567 0)
(0.0126476 0.00242423 0)
(0.0122737 0.00209384 0)
(0.0119531 0.0017893 0)
(0.0116826 0.00150604 0)
(0.0114591 0.00124104 0)
(0.0112799 0.00099223 0)
(0.0111429 0.000758047 0)
(0.0110463 0.00053725 0)
(0.0109882 0.000328855 0)
(0.0109668 0.000132142 0)
(0.0109804 -5.32948e-05 0)
(0.0110271 -0.000227547 0)
(0.0111051 -0.000390455 0)
(0.0112124 -0.000541969 0)
(0.011347 -0.000681981 0)
(0.0115067 -0.000810285 0)
(0.0116893 -0.000926685 0)
(0.0118924 -0.00103103 0)
(0.0121137 -0.00112324 0)
(0.0123507 -0.00120331 0)
(0.0126011 -0.00127136 0)
(0.0128624 -0.0013276 0)
(0.0131324 -0.00137236 0)
(0.0134087 -0.00140605 0)
(0.0136892 -0.00142921 0)
(0.013972 -0.00144244 0)
(0.014255 -0.00144643 0)
(0.0145366 -0.00144191 0)
(0.0148152 -0.00142967 0)
(0.0150895 -0.0014105 0)
(0.0153583 -0.00138521 0)
(0.0156204 -0.00135461 0)
(0.0158751 -0.00131945 0)
(0.0161216 -0.00128051 0)
(0.0163594 -0.00123849 0)
(0.016588 -0.00119405 0)
(0.0168072 -0.00114781 0)
(0.0170168 -0.00110033 0)
(0.0172166 -0.00105212 0)
(0.0174067 -0.00100363 0)
(0.0175872 -0.000955252 0)
(0.0177582 -0.000907332 0)
(0.01792 -0.000860165 0)
(0.0180726 -0.000813998 0)
(0.0182165 -0.000769035 0)
(0.018352 -0.000725442 0)
(0.0184793 -0.000683347 0)
(0.0185988 -0.000642848 0)
(0.0187109 -0.000604015 0)
(0.0188159 -0.000566892 0)
(0.0189141 -0.000531503 0)
(0.019006 -0.000497853 0)
(0.0190918 -0.000465931 0)
(0.019172 -0.000435714 0)
(0.0192468 -0.000407169 0)
(0.0193165 -0.000380254 0)
(0.0193816 -0.000354919 0)
(0.0194421 -0.00033111 0)
(0.0194986 -0.000308771 0)
(0.0195511 -0.000287841 0)
(0.0196 -0.000268259 0)
(0.0196455 -0.000249963 0)
(0.0196879 -0.000232889 0)
(0.0197273 -0.000216979 0)
(0.019764 -0.000202171 0)
(0.0197982 -0.000188406 0)
(0.01983 -0.00017563 0)
(0.0198597 -0.000163787 0)
(0.0198873 -0.000152825 0)
(0.0199131 -0.000142696 0)
(0.0199371 -0.000133352 0)
(0.0199596 -0.000124751 0)
(0.0199807 -0.000116849 0)
(0.0200004 -0.000109609 0)
(0.0200188 -0.000102994 0)
(0.0200362 -9.69713e-05 0)
(0.0200526 -9.15098e-05 0)
(0.0200681 -8.65813e-05 0)
(0.0200827 -8.21604e-05 0)
(0.0200966 -7.82235e-05 0)
(0.0201099 -7.47503e-05 0)
(0.0201226 -7.17222e-05 0)
(0.0201348 -6.91233e-05 0)
(0.0201466 -6.69402e-05 0)
(0.020158 -6.51618e-05 0)
(0.0201692 -6.37783e-05 0)
(0.0201801 -6.27837e-05 0)
(0.0201909 -6.21736e-05 0)
(0.0202016 -6.19452e-05 0)