/*--------------------------------*- C++ -*----------------------------------*\
  =========                 |
  \\      /  F ield         | OpenFOAM: The Open Source CFD Toolbox
   \\    /   O peration     | Website:  https://openfoam.org
    \\  /    A nd           | Version:  dev
     \\/     M anipulation  |
\*---------------------------------------------------------------------------*/
FoamFile
{
    version     2.0;
    format      ascii;
    class       surfaceScalarField;
    location    "8";
    object      phi;
}
// * * * * * * * * * * * * * * * * * * * * * * * * * * * * * * * * * * * * * //

dimensions      [1 0 -1 0 0 0 0];

internalField   nonuniform List<scalar> 
15760
(
5.07283e-06
0.00115355
-5.62631e-07
0.00116425
-3.00963e-05
0.00118814
0.00118515
-5.66443e-05
1.14473e-05
0.0011421
1.16188e-05
0.00116408
-2.13673e-06
0.0012019
0.00123454
-5.15258e-05
3.07894e-05
0.00111131
5.3553e-05
0.00114131
7.97792e-05
0.00117567
0.00124263
7.16828e-05
5.75132e-05
0.0010538
0.000111778
0.00108705
0.00018249
0.00110496
0.0011785
0.000246624
7.96765e-05
0.000974121
0.000159832
0.00100689
0.000260524
0.00100427
0.00105994
0.000379081
9.11702e-05
0.00088295
0.000184143
0.000913922
0.000295546
0.000892862
0.000916442
0.000439046
9.32514e-05
0.000789699
0.000188421
0.000818752
0.000294251
0.000787032
0.000776575
0.00043412
9.15031e-05
0.000698196
0.000182646
0.000727609
0.000274626
0.000695052
0.000660202
0.000390999
9.0174e-05
0.000608023
0.00017396
0.000643824
0.000252582
0.00061643
0.000570029
0.000342755
8.51804e-05
0.000522842
0.000160835
0.00056817
0.000229823
0.000547443
0.000499096
0.000300757
7.18483e-05
0.000450994
0.000138921
0.000501098
0.000200311
0.000486052
0.000442533
0.000256874
5.46087e-05
0.000396385
0.000111926
0.00044378
0.000165154
0.000432824
0.000397416
0.000210272
4.04936e-05
0.000355891
8.75732e-05
0.000396701
0.00013178
0.000388617
0.000361285
0.000167911
3.13436e-05
0.000324547
6.90024e-05
0.000359042
0.000104605
0.000353015
0.000332045
0.000133844
2.54115e-05
0.000299136
5.52806e-05
0.000329173
8.37111e-05
0.000324585
0.000308212
0.000107544
2.09921e-05
0.000278144
4.47952e-05
0.00030537
6.76207e-05
0.000301759
0.000288741
8.70919e-05
1.73699e-05
0.000260774
3.65177e-05
0.000286222
5.49923e-05
0.000283285
0.000272803
7.09305e-05
1.43415e-05
0.000246432
2.98709e-05
0.000270693
4.4913e-05
0.000268242
0.000259729
5.79864e-05
1.18166e-05
0.000234616
2.44783e-05
0.000258031
3.67649e-05
0.000255956
0.000248995
4.74989e-05
9.71482e-06
0.000224901
2.00652e-05
0.000247681
3.0109e-05
0.000245912
0.000240189
3.89157e-05
7.96307e-06
0.000216938
1.64255e-05
0.000239218
2.46246e-05
0.000237713
0.000232983
3.18305e-05
6.4996e-06
0.000210438
1.34034e-05
0.000232314
2.0073e-05
0.000231044
0.000227116
2.59402e-05
5.27341e-06
0.000205165
1.08794e-05
0.000226708
1.6273e-05
0.00022565
0.000222374
2.10142e-05
4.24314e-06
0.000200922
8.76117e-06
0.00022219
1.30857e-05
0.000221325
0.000218584
1.68761e-05
3.3753e-06
0.000197546
6.97706e-06
0.000218589
1.04029e-05
0.0002179
0.000215599
1.33881e-05
2.64303e-06
0.000194903
5.47096e-06
0.000215761
8.13965e-06
0.000215231
0.000213296
1.04423e-05
2.02452e-06
0.000192879
4.19792e-06
0.000213587
6.22834e-06
0.0002132
0.000211572
7.95216e-06
1.50213e-06
0.000191377
3.12161e-06
0.000211968
4.61429e-06
0.000211708
0.000210338
5.84819e-06
1.06134e-06
0.000190315
2.21296e-06
0.000210816
3.25298e-06
0.000210668
0.000209518
4.07326e-06
6.89927e-07
0.000189625
1.44748e-06
0.000210059
2.1077e-06
0.000210008
0.000209045
2.58053e-06
3.7799e-07
0.000189247
8.05587e-07
0.000209631
1.14874e-06
0.000209664
0.000208863
1.33104e-06
1.1568e-07
0.000189132
2.709e-07
0.000209476
3.51225e-07
0.000209584
0.000208922
2.91784e-07
-9.31366e-08
0.000189225
-1.65318e-07
0.000209548
-3.0562e-07
0.000209724
0.000209183
-5.66385e-07
-2.70312e-07
0.000189495
-5.28226e-07
0.000209806
-8.47247e-07
0.000210043
0.000209607
-1.27098e-06
-4.15245e-07
0.00018991
-8.26266e-07
0.000210217
-1.29017e-06
0.000210507
0.00021016
-1.84377e-06
-5.3091e-07
0.000190441
-1.06432e-06
0.00021075
-1.64359e-06
0.000211087
0.000210817
-2.29997e-06
-6.21222e-07
0.000191062
-1.25063e-06
0.00021138
-1.91986e-06
0.000211756
0.000211552
-2.65513e-06
-6.90033e-07
0.000191752
-1.39285e-06
0.000212083
-2.13015e-06
0.000212493
0.000212346
-2.92387e-06
-7.40559e-07
0.000192493
-1.49758e-06
0.00021284
-2.28428e-06
0.00021328
0.000213181
-3.11902e-06
-7.75575e-07
0.000193269
-1.57047e-06
0.000213634
-2.39071e-06
0.0002141
0.000214041
-3.2516e-06
-7.97475e-07
0.000194066
-1.61638e-06
0.000214453
-2.45681e-06
0.000214941
0.000214916
-3.33143e-06
-8.08384e-07
0.000194874
-1.6396e-06
0.000215285
-2.48909e-06
0.00021579
0.000215794
-3.36714e-06
-8.10133e-07
0.000195685
-1.64397e-06
0.000216118
-2.49323e-06
0.000216639
0.000216667
-3.36593e-06
-8.04257e-07
0.000196489
-1.63271e-06
0.000216947
-2.47393e-06
0.000217481
0.000217527
-3.33422e-06
-7.921e-07
0.000197281
-1.60862e-06
0.000217763
-2.43546e-06
0.000218307
0.000218369
-3.27778e-06
-7.74917e-07
0.000198056
-1.57421e-06
0.000218563
-2.38172e-06
0.000219115
0.000219189
-3.20156e-06
-7.53845e-07
0.00019881
-1.53159e-06
0.00021934
-2.31599e-06
0.000219899
0.000219983
-3.1098e-06
-7.29724e-07
0.000199539
-1.48267e-06
0.000220093
-2.24095e-06
0.000220658
0.000220748
-3.00617e-06
-7.03272e-07
0.000200243
-1.42911e-06
0.000220819
-2.15898e-06
0.000221387
0.000221483
-2.89379e-06
-6.75173e-07
0.000200918
-1.3722e-06
0.000221516
-2.07209e-06
0.000222087
0.000222186
-2.77528e-06
-6.46005e-07
0.000201564
-1.31307e-06
0.000222183
-1.98202e-06
0.000222756
0.000222857
-2.65285e-06
-6.16247e-07
0.00020218
-1.25265e-06
0.00022282
-1.89018e-06
0.000223394
0.000223495
-2.52838e-06
-5.86284e-07
0.000202766
-1.19178e-06
0.000223425
-1.79777e-06
0.000224
0.000224101
-2.40341e-06
-5.5642e-07
0.000203323
-1.1311e-06
0.000224
-1.70576e-06
0.000224574
0.000224674
-2.27925e-06
-5.26919e-07
0.00020385
-1.07115e-06
0.000224544
-1.61495e-06
0.000225118
0.000225216
-2.15691e-06
-4.97994e-07
0.000204348
-1.0124e-06
0.000225058
-1.52599e-06
0.000225632
0.000225728
-2.03723e-06
-4.6982e-07
0.000204817
-9.55155e-07
0.000225544
-1.43937e-06
0.000226116
0.000226209
-1.92086e-06
-4.42518e-07
0.00020526
-8.9969e-07
0.000226001
-1.35549e-06
0.000226572
0.000226662
-1.8083e-06
-4.16191e-07
0.000205676
-8.46191e-07
0.000226431
-1.27466e-06
0.000227
0.000227087
-1.69991e-06
-3.90914e-07
0.000206067
-7.94811e-07
0.000226835
-1.19707e-06
0.000227403
0.000227486
-1.59596e-06
-3.66733e-07
0.000206434
-7.45655e-07
0.000227214
-1.12287e-06
0.00022778
0.00022786
-1.49662e-06
-3.43668e-07
0.000206777
-6.98778e-07
0.000227569
-1.05211e-06
0.000228133
0.00022821
-1.40197e-06
-3.21731e-07
0.000207099
-6.54192e-07
0.000227901
-9.84854e-07
0.000228464
0.000228537
-1.31206e-06
-3.00915e-07
0.0002074
-6.11904e-07
0.000228212
-9.21085e-07
0.000228773
0.000228843
-1.22683e-06
-2.81219e-07
0.000207681
-5.71886e-07
0.000228503
-8.60756e-07
0.000229062
0.000229128
-1.14623e-06
-2.6262e-07
0.000207944
-5.34097e-07
0.000228774
-8.03789e-07
0.000229332
0.000229394
-1.07018e-06
-2.45094e-07
0.000208189
-4.98466e-07
0.000229028
-7.50122e-07
0.000229583
0.000229643
-9.98548e-07
-2.28602e-07
0.000208417
-4.64941e-07
0.000229264
-6.99635e-07
0.000229818
0.000229874
-9.31188e-07
-2.13102e-07
0.000208631
-4.33455e-07
0.000229485
-6.52212e-07
0.000230037
0.00023009
-8.67941e-07
-1.9856e-07
0.000208829
-4.03923e-07
0.00022969
-6.07729e-07
0.00023024
0.000230291
-8.08643e-07
-1.84949e-07
0.000209014
-3.76249e-07
0.000229881
-5.66067e-07
0.00023043
0.000230478
-7.5314e-07
-1.72209e-07
0.000209186
-3.50366e-07
0.000230059
-5.27098e-07
0.000230607
0.000230652
-7.01238e-07
-1.60299e-07
0.000209347
-3.26185e-07
0.000230225
-4.90702e-07
0.000230771
0.000230814
-6.52744e-07
-1.49192e-07
0.000209496
-3.03617e-07
0.00023038
-4.56724e-07
0.000230925
0.000230965
-6.07495e-07
-1.38839e-07
0.000209635
-2.82572e-07
0.000230523
-4.2505e-07
0.000231067
0.000231105
-5.65323e-07
-1.29194e-07
0.000209764
-2.62965e-07
0.000230657
-3.9556e-07
0.0002312
0.000231236
-5.2607e-07
-1.20217e-07
0.000209884
-2.4472e-07
0.000230782
-3.68136e-07
0.000231323
0.000231357
-4.89561e-07
-1.1187e-07
0.000209996
-2.27774e-07
0.000230898
-3.42647e-07
0.000231438
0.00023147
-4.55627e-07
-1.04116e-07
0.0002101
-2.12045e-07
0.000231005
-3.18979e-07
0.000231545
0.000231575
-4.2413e-07
-9.69295e-08
0.000210197
-1.97453e-07
0.000231106
-2.9702e-07
0.000231644
0.000231673
-3.9493e-07
-9.02739e-08
0.000210287
-1.83926e-07
0.0002312
-2.7669e-07
0.000231737
0.000231765
-3.67893e-07
-8.41091e-08
0.000210371
-1.71414e-07
0.000231287
-2.57883e-07
0.000231824
0.00023185
-3.4288e-07
-7.84161e-08
0.00021045
-1.59853e-07
0.000231368
-2.40503e-07
0.000231904
0.000231929
-3.19762e-07
-7.31625e-08
0.000210523
-1.49187e-07
0.000231444
-2.24464e-07
0.00023198
0.000232003
-2.98435e-07
-6.83224e-08
0.000210591
-1.39359e-07
0.000231515
-2.09683e-07
0.00023205
0.000232072
-2.78793e-07
-6.38735e-08
0.000210655
-1.30314e-07
0.000231582
-1.96101e-07
0.000232116
0.000232137
-2.60729e-07
-5.97846e-08
0.000210715
-1.22016e-07
0.000231644
-1.83635e-07
0.000232177
0.000232197
-2.44158e-07
-5.60355e-08
0.000210771
-1.14419e-07
0.000231703
-1.72224e-07
0.000232235
0.000232254
-2.28982e-07
-5.26136e-08
0.000210823
-1.07487e-07
0.000231757
-1.61796e-07
0.000232289
0.000232307
-2.15123e-07
-4.95032e-08
0.000210873
-1.01166e-07
0.000231809
-1.52309e-07
0.000232341
0.000232357
-2.02516e-07
-4.6677e-08
0.00021092
-9.54412e-08
0.000231858
-1.43705e-07
0.000232389
0.000232405
-1.91091e-07
-4.41207e-08
0.000210964
-9.0274e-08
0.000231904
-1.35948e-07
0.000232435
0.00023245
-1.80782e-07
-4.18283e-08
0.000211005
-8.56377e-08
0.000231948
-1.2898e-07
0.000232478
0.000232492
-1.7153e-07
-3.97854e-08
0.000211045
-8.15031e-08
0.000231989
-1.22772e-07
0.000232519
0.000232533
-1.63285e-07
-3.79793e-08
0.000211083
-7.78469e-08
0.000232029
-1.17294e-07
0.000232559
0.000232571
-1.5601e-07
-3.64002e-08
0.00021112
-7.46561e-08
0.000232068
-1.12509e-07
0.000232596
0.000232608
-1.4966e-07
-3.50365e-08
0.000211155
-7.19151e-08
0.000232104
-1.08394e-07
0.000232633
0.000232644
-1.44198e-07
-3.38784e-08
0.000211189
-6.96008e-08
0.00023214
-1.04932e-07
0.000232668
0.000232679
-1.39598e-07
-3.29326e-08
0.000211221
-6.77042e-08
0.000232175
-1.02087e-07
0.000232703
0.000232713
-1.35834e-07
-3.21817e-08
0.000211254
-6.62122e-08
0.000232209
-9.98642e-08
0.000232736
0.000232746
-1.32884e-07
-3.16315e-08
0.000211285
-6.51236e-08
0.000232242
-9.82411e-08
0.000232769
0.000232778
-1.3073e-07
-3.1277e-08
0.000211316
-6.44294e-08
0.000232276
-9.72106e-08
0.000232802
0.00023281
-1.29378e-07
-3.11083e-08
0.000211348
-6.41301e-08
0.000232309
-9.67738e-08
0.000232835
0.000232842
-1.28807e-07
-3.11321e-08
0.000211379
-6.4217e-08
0.000232342
-9.69224e-08
0.000232868
0.000232874
-1.29018e-07
-3.13395e-08
0.00021141
-6.47031e-08
0.000232375
-9.76652e-08
0.000232901
0.000232907
-1.30013e-07
-3.17542e-08
0.000211442
-6.55794e-08
0.000232409
-9.90015e-08
0.000232934
0.00023294
-1.31801e-07
-3.23629e-08
0.000211474
-6.68576e-08
0.000232443
-1.00947e-07
0.000232968
0.000232973
-1.34397e-07
-3.317e-08
0.000211507
-6.85495e-08
0.000232479
-1.03512e-07
0.000233003
0.000233007
-1.37814e-07
-3.41808e-08
0.000211541
-7.06654e-08
0.000232515
-1.06712e-07
0.000233039
0.000233043
-1.42081e-07
-3.54025e-08
0.000211577
-7.3218e-08
0.000232553
-1.10567e-07
0.000233076
0.000233079
-1.47224e-07
-3.68406e-08
0.000211614
-7.62197e-08
0.000232592
-1.15113e-07
0.000233115
0.000233118
-1.53269e-07
-3.85191e-08
0.000211652
-7.96963e-08
0.000232634
-1.20361e-07
0.000233156
0.000233157
-1.60265e-07
-4.04353e-08
0.000211693
-8.36696e-08
0.000232677
-1.26361e-07
0.000233199
0.000233199
-1.68257e-07
-4.261e-08
0.000211735
-8.81557e-08
0.000232722
-1.3315e-07
0.000233244
0.000233244
-1.7729e-07
-4.50431e-08
0.00021178
-9.31979e-08
0.000232771
-1.40757e-07
0.000233291
0.00023329
-1.87423e-07
-4.77558e-08
0.000211828
-9.88187e-08
0.000232822
-1.49246e-07
0.000233342
0.00023334
-1.9872e-07
-5.07635e-08
0.000211879
-1.05062e-07
0.000232876
-1.58657e-07
0.000233395
0.000233392
-2.1125e-07
-5.40949e-08
0.000211933
-1.11956e-07
0.000232934
-1.6906e-07
0.000233452
0.000233448
-2.25101e-07
-5.77769e-08
0.000211991
-1.19546e-07
0.000232996
-1.8052e-07
0.000233513
0.000233508
-2.40355e-07
-6.18224e-08
0.000212052
-1.27894e-07
0.000233062
-1.93113e-07
0.000233578
0.000233572
-2.57116e-07
-6.62561e-08
0.000212119
-1.37035e-07
0.000233132
-2.0692e-07
0.000233648
0.000233641
-2.75481e-07
-7.11001e-08
0.00021219
-1.47043e-07
0.000233208
-2.22014e-07
0.000233723
0.000233714
-2.95568e-07
-7.63875e-08
0.000212266
-1.57973e-07
0.00023329
-2.385e-07
0.000233804
0.000233793
-3.17509e-07
-8.21581e-08
0.000212348
-1.69896e-07
0.000233378
-2.56489e-07
0.00023389
0.000233878
-3.41447e-07
-8.8458e-08
0.000212437
-1.82896e-07
0.000233472
-2.76087e-07
0.000233984
0.00023397
-3.67541e-07
-9.53189e-08
0.000212532
-1.97044e-07
0.000233574
-2.97436e-07
0.000234084
0.000234068
-3.9594e-07
-1.02777e-07
0.000212635
-2.12445e-07
0.000233684
-3.20661e-07
0.000234192
0.000234174
-4.26838e-07
-1.10893e-07
0.000212746
-2.29181e-07
0.000233802
-3.45911e-07
0.000234309
0.000234289
-4.60437e-07
-1.19704e-07
0.000212865
-2.47378e-07
0.000233929
-3.73351e-07
0.000234435
0.000234412
-4.96944e-07
-1.29284e-07
0.000212995
-2.67145e-07
0.000234067
-4.03162e-07
0.000234571
0.000234546
-5.36601e-07
-1.39694e-07
0.000213134
-2.88614e-07
0.000234216
-4.35534e-07
0.000234718
0.00023469
-5.79676e-07
-1.51001e-07
0.000213285
-3.11924e-07
0.000234377
-4.70686e-07
0.000234877
0.000234846
-6.26434e-07
-1.63275e-07
0.000213449
-3.37229e-07
0.000234551
-5.08842e-07
0.000235048
0.000235014
-6.77186e-07
-1.76599e-07
0.000213625
-3.64692e-07
0.000234739
-5.50255e-07
0.000235234
0.000235196
-7.32264e-07
-1.91057e-07
0.000213816
-3.94498e-07
0.000234943
-5.95192e-07
0.000235435
0.000235393
-7.92037e-07
-2.06738e-07
0.000214023
-4.26847e-07
0.000235163
-6.4396e-07
0.000235652
0.000235606
-8.56898e-07
-2.23769e-07
0.000214247
-4.61953e-07
0.000235401
-6.9688e-07
0.000235887
0.000235836
-9.27288e-07
-2.42251e-07
0.000214489
-5.00052e-07
0.000235659
-7.54318e-07
0.000236141
0.000236086
-1.00367e-06
-2.6232e-07
0.000214751
-5.4141e-07
0.000235938
-8.16659e-07
0.000236416
0.000236356
-1.08656e-06
-2.84104e-07
0.000215035
-5.86304e-07
0.00023624
-8.84318e-07
0.000236714
0.000236648
-1.17652e-06
-3.0776e-07
0.000215343
-6.35037e-07
0.000236567
-9.57763e-07
0.000237037
0.000236964
-1.27416e-06
-3.33441e-07
0.000215677
-6.87955e-07
0.000236922
-1.03749e-06
0.000237386
0.000237307
-1.38016e-06
-3.61337e-07
0.000216038
-7.45418e-07
0.000237306
-1.12408e-06
0.000237765
0.000237678
-1.49527e-06
-3.91648e-07
0.00021643
-8.07843e-07
0.000237722
-1.21813e-06
0.000238175
0.00023808
-1.62027e-06
-4.24588e-07
0.000216854
-8.75665e-07
0.000238173
-1.3203e-06
0.00023862
0.000238516
-1.75605e-06
-4.60396e-07
0.000217314
-9.49375e-07
0.000238662
-1.43133e-06
0.000239102
0.000238988
-1.90358e-06
-4.99323e-07
0.000217814
-1.0295e-06
0.000239192
-1.55201e-06
0.000239624
0.0002395
-2.06394e-06
-5.41668e-07
0.000218355
-1.11665e-06
0.000239767
-1.68325e-06
0.000240191
0.000240055
-2.23828e-06
-5.87749e-07
0.000218943
-1.21147e-06
0.000240391
-1.826e-06
0.000240806
0.000240657
-2.42789e-06
-6.37908e-07
0.000219581
-1.31466e-06
0.000241068
-1.98135e-06
0.000241472
0.00024131
-2.63418e-06
-6.9254e-07
0.000220274
-1.42703e-06
0.000241802
-2.15046e-06
0.000242196
0.000242018
-2.85873e-06
-7.52073e-07
0.000221026
-1.54943e-06
0.0002426
-2.33466e-06
0.000242981
0.000242787
-3.10327e-06
-8.16986e-07
0.000221843
-1.68286e-06
0.000243466
-2.53539e-06
0.000243833
0.000243621
-3.3697e-06
-8.87815e-07
0.00022273
-1.82838e-06
0.000244406
-2.75428e-06
0.000244759
0.000244527
-3.66015e-06
-9.65145e-07
0.000223696
-1.9872e-06
0.000245428
-2.99311e-06
0.000245765
0.000245511
-3.97698e-06
-1.04962e-06
0.000224745
-2.16064e-06
0.000246539
-3.25385e-06
0.000246858
0.00024658
-4.32279e-06
-1.14199e-06
0.000225887
-2.3502e-06
0.000247747
-3.53874e-06
0.000248047
0.000247741
-4.70051e-06
-1.24306e-06
0.00022713
-2.55752e-06
0.000249062
-3.85024e-06
0.00024934
0.000249005
-5.11338e-06
-1.35375e-06
0.000228484
-2.78451e-06
0.000250493
-4.19114e-06
0.000250746
0.000250379
-5.56506e-06
-1.47511e-06
0.000229959
-3.03322e-06
0.000252051
-4.56456e-06
0.000252278
0.000251874
-6.05966e-06
-1.60831e-06
0.000231567
-3.30605e-06
0.000253748
-4.97402e-06
0.000253946
0.000253501
-6.60175e-06
-1.75468e-06
0.000233322
-3.60566e-06
0.000255599
-5.42349e-06
0.000255763
0.000255274
-7.19653e-06
-1.91573e-06
0.000235238
-3.9351e-06
0.000257619
-5.91744e-06
0.000257746
0.000257207
-7.84987e-06
-2.09317e-06
0.000237331
-4.2978e-06
0.000259823
-6.46098e-06
0.000259909
0.000259314
-8.56838e-06
-2.28896e-06
0.00023962
-4.69769e-06
0.000262232
-7.05989e-06
0.000262271
0.000261614
-9.35965e-06
-2.50534e-06
0.000242125
-5.13925e-06
0.000264866
-7.72081e-06
0.000264853
0.000264125
-1.02323e-05
-2.74488e-06
0.00024487
-5.62763e-06
0.000267749
-8.45134e-06
0.000267676
0.00026687
-1.11961e-05
-3.01058e-06
0.000247881
-6.1688e-06
0.000270907
-9.26021e-06
0.000270768
0.000269872
-1.22625e-05
-3.3059e-06
0.000251187
-6.76965e-06
0.000274371
-1.01575e-05
0.000274156
0.000273159
-1.34444e-05
-3.63489e-06
0.000254821
-7.43818e-06
0.000278174
-1.11551e-05
0.000277873
0.000276761
-1.47571e-05
-4.00226e-06
0.000258824
-8.18374e-06
0.000282356
-1.22664e-05
0.000281955
0.000280713
-1.62181e-05
-4.41357e-06
0.000263237
-9.0173e-06
0.000286959
-1.35076e-05
0.000286446
0.000285053
-1.78479e-05
-4.87539e-06
0.000268113
-9.95179e-06
0.000292036
-1.48975e-05
0.000291391
0.000289826
-1.96706e-05
-5.39554e-06
0.000273508
-1.10026e-05
0.000297643
-1.64582e-05
0.000296847
0.000295083
-2.17145e-05
-5.98338e-06
0.000279492
-1.21879e-05
0.000303847
-1.82164e-05
0.000302875
0.00030088
-2.40133e-05
-6.65015e-06
0.000286142
-1.35298e-05
0.000310727
-2.02035e-05
0.000309549
0.000307283
-2.66071e-05
-7.40949e-06
0.000293551
-1.50547e-05
0.000318372
-2.24578e-05
0.000316952
0.000314369
-2.95437e-05
-8.27803e-06
0.000301829
-1.67949e-05
0.000326889
-2.50253e-05
0.000325183
0.000322225
-3.28813e-05
-9.27626e-06
0.000311105
-1.87898e-05
0.000336403
-2.79624e-05
0.000334355
0.000330953
-3.669e-05
-1.04296e-05
0.000321535
-2.10883e-05
0.000347061
-3.13383e-05
0.000344605
0.00034067
-4.10558e-05
-1.17697e-05
0.000333305
-2.3751e-05
0.000359043
-3.52388e-05
0.000356093
0.000351516
-4.60844e-05
-1.33366e-05
0.000346641
-2.68543e-05
0.00037256
-3.97711e-05
0.00036901
0.000363652
-5.19072e-05
-1.51814e-05
0.000361823
-3.0495e-05
0.000387874
-4.50705e-05
0.000383585
0.00037727
-5.86885e-05
-1.73698e-05
0.000379192
-3.47973e-05
0.000405301
-5.13094e-05
0.000400097
0.000392596
-6.66357e-05
-1.99874e-05
0.00039918
-3.99223e-05
0.000425236
-5.87096e-05
0.000418885
0.0004099
-7.60132e-05
-2.31477e-05
0.000422328
-4.60817e-05
0.00044817
-6.75604e-05
0.000440363
0.000429501
-8.71613e-05
-2.70011e-05
0.000449329
-5.3557e-05
0.000474726
-7.8243e-05
0.000465049
0.00045178
-0.000100522
-3.1757e-05
0.000481086
-6.27296e-05
0.000505699
-9.12665e-05
0.000493586
0.000477192
-0.000116678
-3.76899e-05
0.000518776
-7.41199e-05
0.000542129
-0.000107322
0.000526788
0.000506273
-0.000136403
-4.52204e-05
0.000563996
-8.84608e-05
0.000585369
-0.000127358
0.000565685
0.000539656
-0.000160741
-5.48865e-05
0.000618882
-0.000106785
0.000637268
-0.000152706
0.000611606
0.000578061
-0.000191111
-6.75464e-05
0.000686429
-0.000130586
0.000700307
-0.000185254
0.000666274
0.000622294
-0.000229487
-8.45096e-05
0.000770938
-0.000162138
0.000777935
-0.00022774
0.000731876
0.000673157
-0.000278603
-0.000107221
0.000878159
-0.000204543
0.000875258
-0.000284287
0.000811621
0.000731337
-0.000342468
-0.0001397
0.00101786
-0.00026343
0.000998988
-0.000360838
0.000909029
0.000797019
-0.000426521
-0.000183188
0.00120105
-0.000344981
0.00116078
-0.000467984
0.00103203
0.000869356
-0.000540321
-0.000244242
0.00144529
-0.000461149
0.00137769
-0.000618135
0.00118902
0.000945151
-0.000693931
-0.000346954
0.00179224
-0.000635623
0.00166636
-0.000847837
0.00140123
0.00102264
-0.000925328
-0.000400482
0.00219273
-0.000803955
0.00206983
-0.00114244
0.00173972
0.00111903
-0.00123883
-0.000766948
-0.00140288
-0.00178319
-0.00195102
0.000233153
-0.000289797
0.000460958
-0.000279331
0.00067528
-0.00014264
0.000796565
0.000125339
0.000808745
0.0003669
0.000753237
0.000494552
0.000665744
0.000521612
0.000570483
0.000486261
0.000488552
0.000424687
0.000427064
0.000362246
0.000383278
0.00030066
0.000351154
0.000242396
0.000325682
0.000193383
0.000304483
0.000155043
0.000286686
0.000125342
0.000271764
0.000102014
0.000259268
8.34268e-05
0.000248821
6.84337e-05
0.000240114
5.62059e-05
0.000232891
4.61381e-05
0.00022694
3.77822e-05
0.000222078
3.08014e-05
0.000218154
2.49386e-05
0.000215034
1.99956e-05
0.000212606
1.58166e-05
0.00021077
1.22787e-05
0.000209439
9.2825e-06
0.00020854
6.74775e-06
0.000208005
4.60784e-06
0.000207778
2.80786e-06
0.000207807
1.30139e-06
0.000208051
4.86712e-08
0.00020847
-9.85368e-07
0.00020903
-1.83124e-06
0.000209701
-2.51495e-06
0.000210458
-3.05738e-06
0.00021128
-3.4772e-06
0.000212148
-3.79171e-06
0.000213046
-4.01669e-06
0.00021396
-4.1658e-06
0.00021488
-4.25094e-06
0.000215795
-4.28232e-06
0.000216698
-4.2691e-06
0.000217583
-4.21932e-06
0.000218445
-4.13996e-06
0.000219281
-4.03703e-06
0.000220087
-3.9157e-06
0.000220861
-3.78039e-06
0.000221602
-3.63489e-06
0.000222309
-3.48245e-06
0.000222982
-3.32578e-06
0.000223621
-3.16711e-06
0.000224226
-3.00833e-06
0.000224798
-2.85096e-06
0.000225337
-2.69626e-06
0.000225845
-2.54521e-06
0.000226323
-2.39857e-06
0.000226771
-2.25693e-06
0.000227192
-2.12071e-06
0.000227586
-1.99021e-06
0.000227955
-1.86563e-06
0.0002283
-1.74705e-06
0.000228623
-1.63448e-06
0.000228924
-1.52787e-06
0.000229205
-1.42713e-06
0.000229467
-1.33213e-06
0.000229711
-1.24268e-06
0.000229938
-1.15861e-06
0.00023015
-1.0797e-06
0.000230347
-1.00576e-06
0.00023053
-9.36561e-07
0.000230701
-8.71869e-07
0.00023086
-8.11458e-07
0.000231007
-7.55117e-07
0.000231145
-7.02628e-07
0.000231272
-6.53769e-07
0.000231391
-6.08332e-07
0.000231502
-5.66119e-07
0.000231605
-5.26948e-07
0.0002317
-4.90638e-07
0.000231789
-4.57013e-07
0.000231872
-4.25908e-07
0.00023195
-3.97175e-07
0.000232022
-3.7067e-07
0.000232089
-3.46262e-07
0.000232153
-3.2382e-07
0.000232212
-3.03229e-07
0.000232267
-2.84374e-07
0.000232319
-2.67169e-07
0.000232368
-2.51511e-07
0.000232414
-2.3732e-07
0.000232458
-2.24511e-07
0.0002325
-2.13026e-07
0.000232539
-2.02798e-07
0.000232577
-1.93767e-07
0.000232613
-1.85882e-07
0.000232648
-1.79106e-07
0.000232682
-1.73394e-07
0.000232715
-1.68726e-07
0.000232747
-1.65069e-07
0.000232778
-1.62412e-07
0.00023281
-1.60732e-07
0.000232841
-1.60031e-07
0.000232872
-1.60293e-07
0.000232904
-1.61535e-07
0.000232936
-1.63765e-07
0.000232968
-1.66997e-07
0.000233002
-1.71253e-07
0.000233036
-1.76557e-07
0.000233072
-1.82948e-07
0.000233109
-1.90469e-07
0.000233148
-1.99169e-07
0.000233189
-2.09099e-07
0.000233232
-2.2032e-07
0.000233278
-2.3291e-07
0.000233326
-2.46944e-07
0.000233377
-2.62519e-07
0.000233432
-2.7973e-07
0.00023349
-2.98682e-07
0.000233552
-3.19503e-07
0.000233619
-3.42315e-07
0.000233691
-3.67268e-07
0.000233768
-3.9452e-07
0.000233851
-4.2426e-07
0.00023394
-4.56664e-07
0.000234036
-4.91946e-07
0.000234139
-5.30323e-07
0.000234251
-5.72044e-07
0.000234371
-6.17387e-07
0.000234501
-6.66639e-07
0.000234642
-7.20127e-07
0.000234794
-7.78187e-07
0.000234958
-8.41205e-07
0.000235135
-9.09589e-07
0.000235327
-9.838e-07
0.000235534
-1.06433e-06
0.000235759
-1.1517e-06
0.000236001
-1.24652e-06
0.000236264
-1.3494e-06
0.000236549
-1.46104e-06
0.000236857
-1.58222e-06
0.00023719
-1.71376e-06
0.000237552
-1.85657e-06
0.000237943
-2.01164e-06
0.000238367
-2.18006e-06
0.000238827
-2.36304e-06
0.000239325
-2.56189e-06
0.000239864
-2.77804e-06
0.000240449
-3.01309e-06
0.000241084
-3.26878e-06
0.000241772
-3.54703e-06
0.000242519
-3.84998e-06
0.000243329
-4.17999e-06
0.000244209
-4.53964e-06
0.000245164
-4.93184e-06
0.000246201
-5.35979e-06
0.000247327
-5.82707e-06
0.000248552
-6.33766e-06
0.000249883
-6.89603e-06
0.00025133
-7.50717e-06
0.000252905
-8.17668e-06
0.000254619
-8.9109e-06
0.000256486
-9.71692e-06
0.000258521
-1.06028e-05
0.000260739
-1.15778e-05
0.000263159
-1.26522e-05
0.000265801
-1.38379e-05
0.000268687
-1.51486e-05
0.000271842
-1.65999e-05
0.000275295
-1.82101e-05
0.000279077
-1.99999e-05
0.000283223
-2.1994e-05
0.000287773
-2.42208e-05
0.000292773
-2.67138e-05
0.000298272
-2.95127e-05
0.000304329
-3.26643e-05
0.00031101
-3.62246e-05
0.000318389
-4.02606e-05
0.000326553
-4.48534e-05
0.000335598
-5.01011e-05
0.000345637
-5.61236e-05
0.000356799
-6.30686e-05
0.000369229
-7.11189e-05
0.000383096
-8.05026e-05
0.000398589
-9.15066e-05
0.000415923
-0.000104495
0.000435332
-0.000119931
0.000457069
-0.000138415
0.00048139
-0.000160725
0.000508526
-0.000187877
0.000538631
-0.000221216
0.000571668
-0.000262524
0.000607243
-0.000314179
0.000644147
-0.000379371
0.000679969
-0.000462343
0.000708486
-0.000568838
0.000720217
-0.000705662
0.000677971
-0.000883082
0.000539467
-0.00110032
-0.00141155
9.46759e-05
-0.000384473
0.000167667
-0.000352322
0.000250103
-0.000225076
0.000353208
2.22328e-05
0.000424277
0.000295829
0.000445801
0.000473028
0.000433126
0.000534288
0.000395951
0.000523439
0.000355645
0.000464995
0.000327968
0.000389923
0.000311144
0.000317484
0.000298029
0.000255511
0.000285524
0.000205888
0.000273551
0.000167016
0.000262507
0.000136386
0.000252592
0.000111929
0.000243861
9.21574e-05
0.000236294
7.60007e-05
0.000229827
6.26736e-05
0.000224372
5.1593e-05
0.000219835
4.23188e-05
0.000216121
3.45155e-05
0.000213137
2.79222e-05
0.000210798
2.23354e-05
0.000209021
1.75928e-05
0.000207735
1.35647e-05
0.000206873
1.01451e-05
0.000206373
7.24737e-06
0.000206182
4.79888e-06
0.000206251
2.73874e-06
0.000206537
1.01526e-06
0.000207003
-4.16697e-07
0.000207614
-1.59622e-06
0.00020834
-2.5573e-06
0.000209154
-3.32953e-06
0.000210035
-3.93784e-06
0.000210962
-4.40453e-06
0.00021192
-4.74966e-06
0.000212894
-4.99105e-06
0.000213873
-5.14454e-06
0.000214846
-5.22417e-06
0.000215806
-5.2422e-06
0.000216746
-5.2092e-06
0.000217661
-5.13446e-06
0.000218548
-5.02612e-06
0.000219402
-4.89119e-06
0.000220222
-4.73573e-06
0.000221006
-4.56491e-06
0.000221755
-4.38311e-06
0.000222466
-4.19404e-06
0.000223141
-4.00083e-06
0.00022378
-3.80607e-06
0.000224384
-3.6119e-06
0.000224953
-3.42007e-06
0.000225489
-3.232e-06
0.000225992
-3.04878e-06
0.000226465
-2.87127e-06
0.000226908
-2.70013e-06
0.000227323
-2.5358e-06
0.000227711
-2.37859e-06
0.000228075
-2.22868e-06
0.000228414
-2.08612e-06
0.00022873
-1.95093e-06
0.000229025
-1.82302e-06
0.0002293
-1.70224e-06
0.000229557
-1.58842e-06
0.000229795
-1.48135e-06
0.000230017
-1.38077e-06
0.000230224
-1.28644e-06
0.000230416
-1.19808e-06
0.000230595
-1.11542e-06
0.000230762
-1.03817e-06
0.000230916
-9.66074e-07
0.00023106
-8.98848e-07
0.000231194
-8.36237e-07
0.000231318
-7.77975e-07
0.000231433
-7.2381e-07
0.000231541
-6.73506e-07
0.000231641
-6.26845e-07
0.000231734
-5.83591e-07
0.00023182
-5.43547e-07
0.000231901
-5.06514e-07
0.000231976
-4.72307e-07
0.000232046
-4.40757e-07
0.000232111
-4.11713e-07
0.000232173
-3.85005e-07
0.00023223
-3.60501e-07
0.000232283
-3.38077e-07
0.000232334
-3.17612e-07
0.000232381
-2.9899e-07
0.000232426
-2.82113e-07
0.000232469
-2.66891e-07
0.000232509
-2.53233e-07
0.000232547
-2.41068e-07
0.000232584
-2.30333e-07
0.000232619
-2.20966e-07
0.000232653
-2.1291e-07
0.000232685
-2.0613e-07
0.000232717
-2.00578e-07
0.000232748
-1.96238e-07
0.000232779
-1.93077e-07
0.000232809
-1.9109e-07
0.00023284
-1.90252e-07
0.00023287
-1.9058e-07
0.0002329
-1.92061e-07
0.000232931
-1.94715e-07
0.000232963
-1.98556e-07
0.000232995
-2.0362e-07
0.000233029
-2.09934e-07
0.000233063
-2.17536e-07
0.000233099
-2.26479e-07
0.000233137
-2.36824e-07
0.000233176
-2.48625e-07
0.000233218
-2.61973e-07
0.000233262
-2.7694e-07
0.000233309
-2.9363e-07
0.000233358
-3.12145e-07
0.000233411
-3.32601e-07
0.000233468
-3.55129e-07
0.000233528
-3.79879e-07
0.000233593
-4.07004e-07
0.000233662
-4.36664e-07
0.000233737
-4.69058e-07
0.000233817
-5.044e-07
0.000233903
-5.42915e-07
0.000233996
-5.84844e-07
0.000234096
-6.30455e-07
0.000234204
-6.80039e-07
0.000234321
-7.33918e-07
0.000234446
-7.92449e-07
0.000234582
-8.55998e-07
0.000234729
-9.24984e-07
0.000234888
-9.99852e-07
0.000235059
-1.0811e-06
0.000235245
-1.16926e-06
0.000235445
-1.26491e-06
0.000235662
-1.3687e-06
0.000235897
-1.48131e-06
0.000236151
-1.60348e-06
0.000236426
-1.73606e-06
0.000236724
-1.87993e-06
0.000237046
-2.03608e-06
0.000237395
-2.2056e-06
0.000237773
-2.38966e-06
0.000238183
-2.58953e-06
0.000238626
-2.80664e-06
0.000239107
-3.04253e-06
0.000239628
-3.29892e-06
0.000240192
-3.57765e-06
0.000240804
-3.8808e-06
0.000241468
-4.21062e-06
0.000242188
-4.56963e-06
0.000242968
-4.9606e-06
0.000243815
-5.38656e-06
0.000244734
-5.85091e-06
0.000245732
-6.35742e-06
0.000246815
-6.91024e-06
0.000247991
-7.51408e-06
0.000249269
-8.17411e-06
0.000250658
-8.89617e-06
0.000252169
-9.68677e-06
0.000253811
-1.05532e-05
0.000255598
-1.15039e-05
0.000257543
-1.2548e-05
0.000259661
-1.36961e-05
0.000261969
-1.49602e-05
0.000264486
-1.63541e-05
0.00026723
-1.78933e-05
0.000270226
-1.95958e-05
0.000273498
-2.14822e-05
0.000277075
-2.35763e-05
0.000280987
-2.59058e-05
0.000285269
-2.85028e-05
0.00028996
-3.14049e-05
0.000295103
-3.46563e-05
0.000300748
-3.8309e-05
0.000306948
-4.24247e-05
0.000313764
-4.7077e-05
0.000321265
-5.23538e-05
0.000329525
-5.83611e-05
0.000338628
-6.52269e-05
0.000348667
-7.31073e-05
0.000359741
-8.21931e-05
0.000371957
-9.27192e-05
0.000385427
-0.000104976
0.000400259
-0.000119326
0.00041655
-0.000136222
0.000434368
-0.000156233
0.00045372
-0.000180077
0.000474505
-0.000208662
0.000496424
-0.000243135
0.000518842
-0.000284942
0.000540555
-0.000335892
0.000559377
-0.000398193
0.000571509
-0.000474475