/*--------------------------------*- C++ -*----------------------------------*\
  =========                 |
  \\      /  F ield         | OpenFOAM: The Open Source CFD Toolbox
   \\    /   O peration     | Website:  https://openfoam.org
    \\  /    A nd           | Version:  dev
     \\/     M anipulation  |
\*---------------------------------------------------------------------------*/
FoamFile
{
    version     2.0;
    format      ascii;
    class       volVectorField;
    location    "8";
    object      U;
}
// * * * * * * * * * * * * * * * * * * * * * * * * * * * * * * * * * * * * * //

dimensions      [0 1 -1 0 0 0 0];

internalField   nonuniform List<vector> 
8000
(
(0.0997272 0.000158658 0)
(0.100103 2.42153e-05 0)
(0.100534 -0.000942667 0)
(0.0990409 8.8661e-05 0)
(0.0990963 0.00067932 0)
(0.10044 0.00136167 0)
(0.102825 -0.000183316 0)
(0.102262 0.00189875 0)
(0.0976096 0.00152292 0)
(0.09989 0.00427451 0)
(0.103463 0.00494377 0)
(0.107794 0.00872761 0)
(0.0941574 0.00263062 0)
(0.0970081 0.00762195 0)
(0.0997825 0.012225 0)
(0.107137 0.019058 0)
(0.0882423 0.00376947 0)
(0.0911855 0.0101304 0)
(0.0919632 0.0177101 0)
(0.0985216 0.0281292 0)
(0.0805191 0.00464696 0)
(0.0833178 0.0114084 0)
(0.0821064 0.0199585 0)
(0.0856324 0.0324402 0)
(0.072137 0.00512134 0)
(0.074749 0.011631 0)
(0.0722125 0.0200046 0)
(0.0725307 0.0317812 0)
(0.0641897 0.00541135 0)
(0.0665671 0.0112488 0)
(0.0636024 0.0192155 0)
(0.0612932 0.0287757 0)
(0.056341 0.00575196 0)
(0.0589831 0.0107387 0)
(0.0563057 0.018244 0)
(0.0525221 0.0257534 0)
(0.0484598 0.00564848 0)
(0.0520242 0.00995721 0)
(0.0499868 0.0169128 0)
(0.0457108 0.0230499 0)
(0.0415277 0.00465501 0)
(0.0458254 0.0085239 0)
(0.0443354 0.0148039 0)
(0.0402548 0.0199824 0)
(0.0361419 0.00327138 0)
(0.0404776 0.00672784 0)
(0.039373 0.0121784 0)
(0.0359312 0.0164754 0)
(0.032182 0.00218085 0)
(0.0360146 0.00518742 0)
(0.0351998 0.00968764 0)
(0.0325201 0.0131539 0)
(0.0291833 0.00153865 0)
(0.0324032 0.00411126 0)
(0.0318028 0.00766459 0)
(0.029762 0.0104477 0)
(0.0267886 0.00118033 0)
(0.0295367 0.00335873 0)
(0.0290878 0.00611066 0)
(0.0275085 0.00836762 0)
(0.0248166 0.000945834 0)
(0.0272622 0.00277677 0)
(0.0269151 0.00491903 0)
(0.0256677 0.00676249 0)
(0.0231812 0.000765309 0)
(0.0254396 0.00229839 0)
(0.025161 0.00398913 0)
(0.0241611 0.00550058 0)
(0.021828 0.000619518 0)
(0.0239647 0.00190032 0)
(0.0237346 0.00325072 0)
(0.022925 0.00449285 0)
(0.0207113 0.000501768 0)
(0.0227635 0.00156897 0)
(0.0225696 0.00265647 0)
(0.0219093 0.003678 0)
(0.0197915 0.000406674 0)
(0.0217817 0.00129272 0)
(0.0216166 0.00217307 0)
(0.0210749 0.00301213 0)
(0.0190361 0.000329487 0)
(0.0209782 0.00106177 0)
(0.0208375 0.00177625 0)
(0.0203907 0.00246315 0)
(0.0184178 0.000266404 0)
(0.0203215 0.000868151 0)
(0.0202021 0.00144797 0)
(0.0198319 0.00200727 0)
(0.0179144 0.000214476 0)
(0.0197867 0.000705398 0)
(0.0196865 0.0011745 0)
(0.0193783 0.00162646 0)
(0.0175074 0.000171434 0)
(0.0193537 0.000568296 0)
(0.019271 0.000945401 0)
(0.0190135 0.00130694 0)
(0.0171816 0.000135539 0)
(0.0190065 0.000452607 0)
(0.0189397 0.000752633 0)
(0.0187238 0.00103795 0)
(0.0169243 0.000105466 0)
(0.0187316 0.000354897 0)
(0.0186793 0.00058997 0)
(0.0184978 0.000811017 0)
(0.0167249 8.01929e-05 0)
(0.0185178 0.000272323 0)
(0.0184786 0.00045251 0)
(0.0183259 0.000619377 0)
(0.0165743 5.89172e-05 0)
(0.0183559 0.00020257 0)
(0.0183283 0.000336298 0)
(0.0181998 0.000457588 0)
(0.016465 4.1002e-05 0)
(0.0182378 0.000143729 0)
(0.0182205 0.000238174 0)
(0.0181125 0.000321187 0)
(0.0163906 2.59192e-05 0)
(0.0181566 9.41786e-05 0)
(0.0181483 0.00015552 0)
(0.0180578 0.000206507 0)
(0.0163454 1.32335e-05 0)
(0.0181065 5.26346e-05 0)
(0.018106 8.62406e-05 0)
(0.0180305 0.000110533 0)
(0.0163248 2.4095e-06 0)
(0.0180823 1.79949e-05 0)
(0.0180887 2.85712e-05 0)
(0.0180259 3.07222e-05 0)
(0.016325 -5.53282e-06 0)
(0.0180796 -1.00327e-05 0)
(0.018092 -1.88393e-05 0)
(0.0180404 -3.51333e-05 0)
(0.0163408 -1.28482e-05 0)
(0.0180942 -3.35514e-05 0)
(0.0181122 -5.80243e-05 0)
(0.0180704 -8.92798e-05 0)
(0.0163709 -1.87106e-05 0)
(0.0181236 -5.28614e-05 0)
(0.0181466 -9.02158e-05 0)
(0.0181131 -0.000133433 0)
(0.0164122 -2.33851e-05 0)
(0.0181649 -6.82808e-05 0)
(0.0181921 -0.000115885 0)
(0.0181658 -0.000168668 0)
(0.0164623 -2.70192e-05 0)
(0.0182155 -8.03368e-05 0)
(0.0182464 -0.000135975 0)
(0.0182262 -0.00019615 0)
(0.0165192 -2.97663e-05 0)
(0.0182733 -8.95435e-05 0)
(0.0183074 -0.000151303 0)
(0.0182925 -0.000217018 0)
(0.0165812 -3.17639e-05 0)
(0.0183366 -9.63268e-05 0)
(0.0183734 -0.000162578 0)
(0.018363 -0.000232258 0)
(0.0166468 -3.31289e-05 0)
(0.0184038 -0.000101053 0)
(0.018443 -0.000170408 0)
(0.0184364 -0.000242722 0)
(0.0167149 -3.39606e-05 0)
(0.0184736 -0.000104037 0)
(0.0185149 -0.000175316 0)
(0.0185115 -0.000249151 0)
(0.0167844 -3.43421e-05 0)
(0.018545 -0.000105561 0)
(0.018588 -0.000177779 0)
(0.0185872 -0.000252194 0)
(0.0168543 -3.43458e-05 0)
(0.018617 -0.000105866 0)
(0.0186614 -0.00017821 0)
(0.0186629 -0.000252409 0)
(0.0169241 -3.40412e-05 0)
(0.0186889 -0.000105159 0)
(0.0187345 -0.000176948 0)
(0.0187378 -0.000250287 0)
(0.0169931 -3.34889e-05 0)
(0.0187599 -0.000103619 0)
(0.0188066 -0.000174293 0)
(0.0188114 -0.000246267 0)
(0.0170608 -3.27329e-05 0)
(0.0188297 -0.000101413 0)
(0.0188771 -0.000170525 0)
(0.0188832 -0.000240722 0)
(0.0171268 -3.18122e-05 0)
(0.0188979 -9.86829e-05 0)
(0.0189459 -0.000165882 0)
(0.0189528 -0.000233976 0)
(0.0171909 -3.07646e-05 0)
(0.018964 -9.55481e-05 0)
(0.0190125 -0.000160562 0)
(0.0190202 -0.000226307 0)
(0.0172527 -2.96261e-05 0)
(0.0190278 -9.21077e-05 0)
(0.0190768 -0.000154738 0)
(0.0190849 -0.000217955 0)
(0.0173123 -2.84265e-05 0)
(0.0190893 -8.84474e-05 0)
(0.0191385 -0.000148554 0)
(0.019147 -0.000209121 0)
(0.0173693 -2.71869e-05 0)
(0.0191481 -8.46416e-05 0)
(0.0191976 -0.000142133 0)
(0.0192063 -0.000199976 0)
(0.0174238 -2.59234e-05 0)
(0.0192044 -8.07536e-05 0)
(0.019254 -0.000135578 0)
(0.0192628 -0.000190664 0)
(0.0174757 -2.46511e-05 0)
(0.019258 -7.68362e-05 0)
(0.0193077 -0.000128976 0)
(0.0193165 -0.000181301 0)
(0.017525 -2.3384e-05 0)
(0.0193089 -7.29301e-05 0)
(0.0193586 -0.000122398 0)
(0.0193674 -0.000171985 0)
(0.0175717 -2.21348e-05 0)
(0.0193572 -6.90704e-05 0)
(0.0194069 -0.000115902 0)
(0.0194155 -0.000162798 0)
(0.017616 -2.09126e-05 0)
(0.0194029 -6.52853e-05 0)
(0.0194525 -0.000109535 0)
(0.0194609 -0.000153803 0)
(0.0176577 -1.97239e-05 0)
(0.019446 -6.15968e-05 0)
(0.0194955 -0.000103333 0)
(0.0195038 -0.000145052 0)
(0.0176971 -1.85726e-05 0)
(0.0194867 -5.80223e-05 0)
(0.0195361 -9.73251e-05 0)
(0.0195441 -0.00013658 0)
(0.0177341 -1.74622e-05 0)
(0.019525 -5.45747e-05 0)
(0.0195743 -9.15324e-05 0)
(0.019582 -0.000128417 0)
(0.0177689 -1.6396e-05 0)
(0.019561 -5.12639e-05 0)
(0.0196101 -8.59703e-05 0)
(0.0196175 -0.000120585 0)
(0.0178016 -1.53762e-05 0)
(0.0195947 -4.8096e-05 0)
(0.0196437 -8.06493e-05 0)
(0.0196508 -0.000113096 0)
(0.0178323 -1.44042e-05 0)
(0.0196264 -4.50744e-05 0)
(0.0196752 -7.5575e-05 0)
(0.0196821 -0.000105959 0)
(0.017861 -1.34806e-05 0)
(0.019656 -4.22004e-05 0)
(0.0197047 -7.07493e-05 0)
(0.0197113 -9.91774e-05 0)
(0.0178878 -1.26052e-05 0)
(0.0196838 -3.94745e-05 0)
(0.0197323 -6.61716e-05 0)
(0.0197386 -9.27487e-05 0)
(0.0179129 -1.17771e-05 0)
(0.0197097 -3.68951e-05 0)
(0.0197581 -6.18392e-05 0)
(0.0197641 -8.66685e-05 0)
(0.0179364 -1.09946e-05 0)
(0.019734 -3.44594e-05 0)
(0.0197822 -5.7748e-05 0)
(0.0197879 -8.09287e-05 0)
(0.0179583 -1.02566e-05 0)
(0.0197566 -3.21634e-05 0)
(0.0198047 -5.38927e-05 0)
(0.0198101 -7.55205e-05 0)
(0.0179787 -9.56213e-06 0)
(0.0197778 -3.00029e-05 0)
(0.0198257 -5.02657e-05 0)
(0.0198308 -7.04327e-05 0)
(0.0179978 -8.90988e-06 0)
(0.0197974 -2.79728e-05 0)
(0.0198452 -4.68595e-05 0)
(0.0198501 -6.56543e-05 0)
(0.0180155 -8.29852e-06 0)
(0.0198158 -2.60677e-05 0)
(0.0198635 -4.36652e-05 0)
(0.019868 -6.11733e-05 0)
(0.0180321 -7.7268e-06 0)
(0.0198329 -2.42826e-05 0)
(0.0198804 -4.06734e-05 0)
(0.0198848 -5.69775e-05 0)
(0.0180475 -7.19218e-06 0)
(0.0198488 -2.26125e-05 0)
(0.0198962 -3.7875e-05 0)
(0.0199003 -5.30533e-05 0)
(0.0180618 -6.69248e-06 0)
(0.0198637 -2.10516e-05 0)
(0.019911 -3.52605e-05 0)
(0.0199148 -4.93879e-05 0)
(0.0180752 -6.22606e-06 0)
(0.0198775 -1.9595e-05 0)
(0.0199247 -3.282e-05 0)
(0.0199283 -4.59676e-05 0)
(0.0180876 -5.79061e-06 0)
(0.0198904 -1.82369e-05 0)
(0.0199374 -3.0545e-05 0)
(0.0199409 -4.27795e-05 0)
(0.0180991 -5.38471e-06 0)
(0.0199023 -1.69722e-05 0)
(0.0199493 -2.84262e-05 0)
(0.0199526 -3.98107e-05 0)
(0.0181099 -5.00737e-06 0)
(0.0199135 -1.57956e-05 0)
(0.0199603 -2.64546e-05 0)
(0.0199634 -3.70493e-05 0)
(0.0181199 -4.65707e-06 0)
(0.0199238 -1.47022e-05 0)
(0.0199706 -2.4622e-05 0)
(0.0199735 -3.44832e-05 0)
(0.0181292 -4.33189e-06 0)
(0.0199335 -1.36865e-05 0)
(0.0199802 -2.29207e-05 0)
(0.0199829 -3.21015e-05 0)
(0.0181379 -4.03029e-06 0)
(0.0199425 -1.27443e-05 0)
(0.0199891 -2.13429e-05 0)
(0.0199917 -2.98926e-05 0)
(0.018146 -3.75097e-06 0)
(0.0199508 -1.18714e-05 0)
(0.0199974 -1.98816e-05 0)
(0.0199999 -2.78469e-05 0)
(0.0181535 -3.49251e-06 0)
(0.0199586 -1.10636e-05 0)
(0.0200051 -1.85296e-05 0)
(0.0200074 -2.59543e-05 0)
(0.0181605 -3.25392e-06 0)
(0.0199659 -1.03172e-05 0)
(0.0200123 -1.72801e-05 0)
(0.0200145 -2.42053e-05 0)
(0.018167 -3.03336e-06 0)
(0.0199727 -9.62819e-06 0)
(0.020019 -1.61274e-05 0)
(0.0200211 -2.25919e-05 0)
(0.0181731 -2.8297e-06 0)
(0.0199791 -8.99334e-06 0)
(0.0200253 -1.50656e-05 0)
(0.0200273 -2.11053e-05 0)
(0.0181788 -2.64251e-06 0)
(0.019985 -8.40953e-06 0)
(0.0200312 -1.40895e-05 0)
(0.0200331 -1.97381e-05 0)
(0.0181841 -2.4709e-06 0)
(0.0199905 -7.87381e-06 0)
(0.0200367 -1.31933e-05 0)
(0.0200385 -1.84834e-05 0)
(0.0181891 -2.31394e-06 0)
(0.0199957 -7.38299e-06 0)
(0.0200418 -1.23724e-05 0)
(0.0200435 -1.7335e-05 0)
(0.0181938 -2.17064e-06 0)
(0.0200006 -6.9348e-06 0)
(0.0200466 -1.16229e-05 0)
(0.0200483 -1.62862e-05 0)
(0.0181982 -2.04023e-06 0)
(0.0200052 -6.52653e-06 0)
(0.0200512 -1.09405e-05 0)
(0.0200527 -1.53322e-05 0)
(0.0182024 -1.92168e-06 0)
(0.0200095 -6.1565e-06 0)
(0.0200555 -1.03221e-05 0)
(0.0200569 -1.4467e-05 0)
(0.0182063 -1.81454e-06 0)
(0.0200136 -5.82228e-06 0)
(0.0200595 -9.76405e-06 0)
(0.0200609 -1.36866e-05 0)
(0.01821 -1.71828e-06 0)
(0.0200175 -5.52224e-06 0)
(0.0200634 -9.26298e-06 0)
(0.0200647 -1.29863e-05 0)
(0.0182135 -1.63203e-06 0)
(0.0200212 -5.25455e-06 0)
(0.020067 -8.8167e-06 0)
(0.0200683 -1.23624e-05 0)
(0.0182169 -1.55533e-06 0)
(0.0200247 -5.018e-06 0)
(0.0200705 -8.42295e-06 0)
(0.0200717 -1.18117e-05 0)
(0.0182201 -1.48835e-06 0)
(0.0200281 -4.81181e-06 0)
(0.0200738 -8.07919e-06 0)
(0.020075 -1.13305e-05 0)
(0.0182231 -1.43092e-06 0)
(0.0200313 -4.63466e-06 0)
(0.020077 -7.7832e-06 0)
(0.0200781 -1.09163e-05 0)
(0.0182261 -1.38237e-06 0)
(0.0200344 -4.48458e-06 0)
(0.0200801 -7.53329e-06 0)
(0.0200811 -1.0568e-05 0)
(0.018229 -1.34236e-06 0)
(0.0200375 -4.36132e-06 0)
(0.0200831 -7.32807e-06 0)
(0.0200841 -1.02829e-05 0)
(0.0182318 -1.30978e-06 0)
(0.0200405 -4.26384e-06 0)
(0.0200861 -7.16776e-06 0)
(0.020087 -1.00601e-05 0)
(0.0182346 -1.28526e-06 0)
(0.0200434 -4.1928e-06 0)
(0.0200889 -7.05127e-06 0)
(0.0200898 -9.8972e-06 0)
(0.0182373 -1.26927e-06 0)
(0.0200462 -4.14773e-06 0)
(0.0200918 -6.97721e-06 0)
(0.0200926 -9.79406e-06 0)
(0.01824 -1.26145e-06 0)
(0.0200491 -4.12785e-06 0)
(0.0200946 -6.9452e-06 0)
(0.0200954 -9.75031e-06 0)
(0.0182426 -1.26153e-06 0)
(0.0200519 -4.13256e-06 0)
(0.0200974 -6.95492e-06 0)
(0.0200981 -9.76622e-06 0)
(0.0182453 -1.26847e-06 0)
(0.0200548 -4.1621e-06 0)
(0.0201002 -7.00805e-06 0)
(0.0201009 -9.84208e-06 0)
(0.0182481 -1.28329e-06 0)
(0.0200577 -4.21765e-06 0)
(0.0201031 -7.1044e-06 0)
(0.0201037 -9.97773e-06 0)
(0.0182508 -1.30609e-06 0)
(0.0200606 -4.2995e-06 0)
(0.020106 -7.24471e-06 0)
(0.0201066 -1.01741e-05 0)
(0.0182536 -1.33767e-06 0)
(0.0200637 -4.4083e-06 0)
(0.020109 -7.4291e-06 0)
(0.0201095 -1.04321e-05 0)
(0.0182565 -1.37817e-06 0)
(0.0200668 -4.54417e-06 0)
(0.0201121 -7.65853e-06 0)
(0.0201125 -1.07544e-05 0)
(0.0182595 -1.42707e-06 0)
(0.02007 -4.70756e-06 0)
(0.0201152 -7.93476e-06 0)
(0.0201156 -1.11433e-05 0)
(0.0182627 -1.48401e-06 0)
(0.0200733 -4.89939e-06 0)
(0.0201185 -8.26069e-06 0)
(0.0201188 -1.16014e-05 0)
(0.0182659 -1.5502e-06 0)
(0.0200768 -5.12234e-06 0)
(0.0201219 -8.63822e-06 0)
(0.0201222 -1.2131e-05 0)
(0.0182693 -1.62634e-06 0)
(0.0200804 -5.37771e-06 0)
(0.0201255 -9.06986e-06 0)
(0.0201257 -1.27356e-05 0)
(0.0182729 -1.71402e-06 0)
(0.0200842 -5.66699e-06 0)
(0.0201293 -9.55718e-06 0)
(0.0201294 -1.34191e-05 0)
(0.0182767 -1.81305e-06 0)
(0.0200883 -5.99149e-06 0)
(0.0201333 -1.0103e-05 0)
(0.0201333 -1.41855e-05 0)
(0.0182807 -1.92337e-06 0)
(0.0200925 -6.35258e-06 0)
(0.0201375 -1.07116e-05 0)
(0.0201375 -1.50409e-05 0)
(0.0182849 -2.0447e-06 0)
(0.0200971 -6.75282e-06 0)
(0.020142 -1.13873e-05 0)
(0.0201419 -1.59898e-05 0)
(0.0182894 -2.17811e-06 0)
(0.0201019 -7.19509e-06 0)
(0.0201468 -1.21348e-05 0)
(0.0201465 -1.70387e-05 0)
(0.0182942 -2.32538e-06 0)
(0.0201071 -7.68324e-06 0)
(0.0201519 -1.29588e-05 0)
(0.0201515 -1.81934e-05 0)
(0.0182994 -2.48802e-06 0)
(0.0201126 -8.22065e-06 0)
(0.0201573 -1.38643e-05 0)
(0.0201569 -1.94618e-05 0)
(0.0183049 -2.6674e-06 0)
(0.0201185 -8.80959e-06 0)
(0.0201631 -1.48558e-05 0)
(0.0201626 -2.08519e-05 0)
(0.0183108 -2.86401e-06 0)
(0.0201248 -9.45368e-06 0)
(0.0201694 -1.59396e-05 0)
(0.0201687 -2.23721e-05 0)
(0.0183172 -3.07847e-06 0)
(0.0201316 -1.01563e-05 0)
(0.0201761 -1.7123e-05 0)
(0.0201753 -2.40329e-05 0)
(0.018324 -3.31194e-06 0)
(0.0201389 -1.09226e-05 0)
(0.0201833 -1.84147e-05 0)
(0.0201824 -2.58453e-05 0)
(0.0183314 -3.56647e-06 0)
(0.0201467 -1.17585e-05 0)
(0.020191 -1.98229e-05 0)
(0.02019 -2.78204e-05 0)
(0.0183393 -3.84384e-06 0)
(0.0201552 -1.26689e-05 0)
(0.0201994 -2.13564e-05 0)
(0.0201981 -2.99704e-05 0)
(0.0183478 -4.14597e-06 0)
(0.0201643 -1.36598e-05 0)
(0.0202083 -2.30249e-05 0)
(0.020207 -3.23095e-05 0)
(0.018357 -4.47536e-06 0)
(0.0201741 -1.47369e-05 0)
(0.020218 -2.48379e-05 0)
(0.0202165 -3.48531e-05 0)
(0.018367 -4.83289e-06 0)
(0.0201847 -1.5907e-05 0)
(0.0202285 -2.68087e-05 0)
(0.0202267 -3.76173e-05 0)
(0.0183777 -5.22087e-06 0)
(0.0201962 -1.7178e-05 0)
(0.0202398 -2.895e-05 0)
(0.0202378 -4.06202e-05 0)
(0.0183893 -5.64156e-06 0)
(0.0202085 -1.85585e-05 0)
(0.020252 -3.12763e-05 0)
(0.0202498 -4.38816e-05 0)
(0.0184018 -6.09834e-06 0)
(0.0202219 -2.00582e-05 0)
(0.0202652 -3.38027e-05 0)
(0.0202627 -4.74219e-05 0)
(0.0184154 -6.59487e-06 0)
(0.0202363 -2.16867e-05 0)
(0.0202794 -3.65449e-05 0)
(0.0202767 -5.12644e-05 0)
(0.01843 -7.1351e-06 0)
(0.0202519 -2.34546e-05 0)
(0.0202948 -3.95204e-05 0)
(0.0202918 -5.54345e-05 0)
(0.0184458 -7.72214e-06 0)
(0.0202688 -2.5373e-05 0)
(0.0203114 -4.27486e-05 0)
(0.0203081 -5.996e-05 0)
(0.018463 -8.35889e-06 0)
(0.020287 -2.7454e-05 0)
(0.0203294 -4.62519e-05 0)
(0.0203258 -6.48714e-05 0)
(0.0184815 -9.04984e-06 0)
(0.0203068 -2.97123e-05 0)
(0.0203489 -5.0054e-05 0)
(0.0203449 -7.02016e-05 0)
(0.0185016 -9.79905e-06 0)
(0.0203282 -3.21632e-05 0)
(0.02037 -5.41811e-05 0)
(0.0203655 -7.59862e-05 0)
(0.0185234 -1.06125e-05 0)
(0.0203513 -3.48243e-05 0)
(0.0203928 -5.86613e-05 0)
(0.0203879 -8.22636e-05 0)
(0.0185469 -1.1496e-05 0)
(0.0203763 -3.77132e-05 0)
(0.0204175 -6.35241e-05 0)
(0.0204121 -8.90768e-05 0)
(0.0185724 -1.24559e-05 0)
(0.0204035 -4.08496e-05 0)
(0.0204443 -6.88025e-05 0)
(0.0204384 -9.64718e-05 0)
(0.0186 -1.34982e-05 0)
(0.0204328 -4.42546e-05 0)
(0.0204732 -7.45335e-05 0)
(0.0204668 -0.000104501 0)
(0.01863 -1.46302e-05 0)
(0.0204647 -4.79524e-05 0)
(0.0205046 -8.07572e-05 0)
(0.0204975 -0.000113219 0)
(0.0186624 -1.58605e-05 0)
(0.0204992 -5.19697e-05 0)
(0.0205386 -8.75181e-05 0)
(0.0205308 -0.000122688 0)
(0.0186976 -1.71977e-05 0)
(0.0205365 -5.6335e-05 0)
(0.0205755 -9.48632e-05 0)
(0.020567 -0.000132974 0)
(0.0187357 -1.8652e-05 0)
(0.020577 -6.10797e-05 0)
(0.0206154 -0.000102846 0)
(0.0206061 -0.00014415 0)
(0.0187771 -2.02335e-05 0)
(0.020621 -6.62376e-05 0)
(0.0206587 -0.000111522 0)
(0.0206485 -0.000156299 0)
(0.018822 -2.19544e-05 0)
(0.0206686 -7.18478e-05 0)
(0.0207056 -0.000120959 0)
(0.0206945 -0.000169508 0)
(0.0188706 -2.38279e-05 0)
(0.0207202 -7.7952e-05 0)
(0.0207565 -0.000131224 0)
(0.0207443 -0.000183876 0)
(0.0189234 -2.58682e-05 0)
(0.0207763 -8.45958e-05 0)
(0.0208117 -0.000142396 0)
(0.0207984 -0.000199511 0)
(0.0189808 -2.8091e-05 0)
(0.0208371 -9.18307e-05 0)
(0.0208716 -0.000154559 0)
(0.020857 -0.00021653 0)
(0.019043 -3.05131e-05 0)
(0.0209031 -9.97125e-05 0)
(0.0209366 -0.000167808 0)
(0.0209207 -0.000235066 0)
(0.0191106 -3.31539e-05 0)
(0.0209748 -0.000108305 0)
(0.0210072 -0.000182249 0)
(0.0209897 -0.000255264 0)
(0.0191841 -3.60355e-05 0)
(0.0210526 -0.000117678 0)
(0.0210838 -0.000197999 0)
(0.0210647 -0.000277287 0)
(0.0192639 -3.91829e-05 0)
(0.0211372 -0.00012791 0)
(0.021167 -0.000215186 0)
(0.0211462 -0.000301311 0)
(0.0193507 -4.26236e-05 0)
(0.0212291 -0.000139086 0)
(0.0212575 -0.000233954 0)
(0.0212346 -0.000327538 0)
(0.0194451 -4.63881e-05 0)
(0.021329 -0.000151303 0)
(0.0213558 -0.00025446 0)
(0.0213307 -0.000356189 0)
(0.0195479 -5.05096e-05 0)
(0.0214377 -0.000164667 0)
(0.0214627 -0.000276886 0)
(0.0214352 -0.000387513 0)
(0.0196598 -5.50252e-05 0)
(0.0215559 -0.0001793 0)
(0.021579 -0.000301433 0)
(0.0215488 -0.000421789 0)
(0.0197817 -5.99778e-05 0)
(0.0216847 -0.000195338 0)
(0.0217056 -0.000328327 0)
(0.0216724 -0.000459329 0)
(0.0199145 -6.54159e-05 0)
(0.021825 -0.000212935 0)
(0.0218434 -0.000357823 0)
(0.021807 -0.000500484 0)
(0.0200594 -7.13954e-05 0)
(0.0219779 -0.000232265 0)
(0.0219936 -0.000390209 0)
(0.0219535 -0.000545652 0)
(0.0202175 -7.79787e-05 0)
(0.0221446 -0.000253525 0)
(0.0221573 -0.000425811 0)
(0.0221131 -0.000595279 0)
(0.0203902 -8.52371e-05 0)
(0.0223266 -0.000276939 0)
(0.0223359 -0.000464999 0)
(0.0222872 -0.000649876 0)
(0.020579 -9.32513e-05 0)
(0.0225253 -0.000302762 0)
(0.0225308 -0.000508194 0)
(0.022477 -0.00071002 0)
(0.0207855 -0.000102116 0)
(0.0227425 -0.000331286 0)
(0.0227438 -0.000555878 0)
(0.0226843 -0.000776372 0)
(0.0210116 -0.000111938 0)
(0.0229801 -0.000362849 0)
(0.0229766 -0.000608604 0)
(0.0229107 -0.000849689 0)
(0.0212595 -0.000122844 0)
(0.0232403 -0.000397838 0)
(0.0232314 -0.000667009 0)
(0.0231583 -0.000930843 0)
(0.0215316 -0.000134979 0)
(0.0235255 -0.000436702 0)
(0.0235105 -0.000731831 0)
(0.0234292 -0.00102084 0)
(0.0218305 -0.000148512 0)
(0.0238385 -0.000479967 0)
(0.0238165 -0.000803929 0)
(0.0237259 -0.00112084 0)
(0.0221594 -0.000163643 0)
(0.0241824 -0.000528245 0)
(0.0241524 -0.000884301 0)
(0.0240512 -0.00123221 0)
(0.0225218 -0.000180608 0)
(0.0245607 -0.000582255 0)
(0.0245216 -0.000974119 0)
(0.0244084 -0.00135653 0)
(0.0229217 -0.000199685 0)
(0.0249775 -0.000642846 0)
(0.024928 -0.00107476 0)
(0.0248009 -0.00149566 0)
(0.023364 -0.000221209 0)
(0.0254375 -0.000711027 0)
(0.0253759 -0.00118787 0)
(0.0252328 -0.00165181 0)
(0.0238538 -0.000245577 0)
(0.0259461 -0.000788003 0)
(0.0258703 -0.00131538 0)
(0.0257087 -0.00182758 0)
(0.0243977 -0.000273273 0)
(0.0265094 -0.000875222 0)
(0.0264172 -0.00145964 0)
(0.0262341 -0.00202611 0)
(0.0250029 -0.000304884 0)
(0.0271346 -0.000974435 0)
(0.0270232 -0.00162347 0)
(0.0268149 -0.00225114 0)
(0.025678 -0.000341128 0)
(0.0278302 -0.00108778 0)
(0.0276962 -0.00181027 0)
(0.0274582 -0.0025072 0)
(0.0264334 -0.000382892 0)
(0.0286062 -0.00121787 0)
(0.0284453 -0.00202423 0)
(0.0281722 -0.00279983 0)
(0.0272813 -0.000431279 0)
(0.0294743 -0.00136797 0)
(0.0292812 -0.00227049 0)
(0.0289663 -0.00313579 0)
(0.0282364 -0.000487675 0)
(0.0304484 -0.00154213 0)
(0.0302167 -0.00255547 0)
(0.0298514 -0.00352346 0)
(0.0293164 -0.00055384 0)
(0.0315454 -0.00174544 0)
(0.0312669 -0.0028872 0)
(0.0308407 -0.00397326 0)
(0.0305429 -0.000632026 0)
(0.0327856 -0.0019844 0)
(0.0324497 -0.00327586 0)
(0.0319492 -0.00449833 0)
(0.0319426 -0.000725149 0)
(0.0341937 -0.00226736 0)
(0.0337872 -0.00373446 0)
(0.0331951 -0.00511529 0)
(0.0335487 -0.000837022 0)
(0.0358003 -0.00260519 0)
(0.0353056 -0.00427984 0)
(0.0345995 -0.00584551 0)
(0.0354028 -0.000972726 0)
(0.0376434 -0.00301224 0)
(0.0370376 -0.00493406 0)
(0.036188 -0.00671666 0)
(0.037558 -0.00113902 0)
(0.0397708 -0.0035076 0)
(0.0390231 -0.00572637 0)
(0.0379909 -0.007765 0)
(0.0400828 -0.00134537 0)
(0.0422433 -0.00411744 0)
(0.0413121 -0.00669614 0)
(0.0400444 -0.0090387 0)
(0.0430659 -0.00160423 0)
(0.0451397 -0.00487713 0)
(0.0439675 -0.00789712 0)
(0.0423915 -0.0106025 0)
(0.0466283 -0.00193471 0)
(0.0485629 -0.00583798 0)
(0.0470687 -0.00940412 0)
(0.0450836 -0.0125447 0)
(0.0509238 -0.00236175 0)
(0.0526505 -0.00707062 0)
(0.0507189 -0.0113225 0)
(0.0481806 -0.0149875 0)
(0.0561955 -0.00292375 0)
(0.0575889 -0.0086796 0)
(0.0550476 -0.0138046 0)
(0.0517507 -0.018103 0)
(0.0626792 -0.0036833 0)
(0.0636333 -0.0108301 0)
(0.0602398 -0.0170735 0)
(0.0558723 -0.0221347 0)
(0.0710656 -0.0047065 0)
(0.0711598 -0.0137198 0)
(0.0664882 -0.0214629 0)
(0.0606088 -0.0274492 0)
(0.0811271 -0.00616033 0)
(0.0806222 -0.0178146 0)
(0.0742595 -0.0274866 0)
(0.0660803 -0.0345494 0)
(0.0965046 -0.0082592 0)
(0.0931038 -0.0234104 0)
(0.0835447 -0.0359234 0)
(0.0720837 -0.0443643 0)
(0.110274 -0.0107262 0)
(0.108154 -0.0313715 0)
(0.0966011 -0.0480094 0)
(0.0796248 -0.0578628 0)
(0.146011 -0.0163318 0)
(0.133815 -0.0445117 0)
(0.110882 -0.0660442 0)
(0.0846195 -0.0784386 0)
(0.157278 -0.0172194 0)
(0.151142 -0.0527925 0)
(0.134653 -0.0879217 0)
(0.1042 -0.106206 0)
(0.245664 -0.0339581 0)
(0.224829 -0.0980869 0)
(0.175954 -0.148302 0)
(0.101418 -0.168012 0)
(0.00721335 -0.0163349 0)
(0.0232356 -0.0166798 0)
(0.0485947 -0.00309382 0)
(0.0683465 0.0172911 0)
(0.0727524 0.0327568 0)
(0.0690803 0.0406626 0)
(0.0615451 0.0421695 0)
(0.052958 0.0385527 0)
(0.0450319 0.0334974 0)
(0.0389352 0.028997 0)
(0.0345084 0.024461 0)
(0.0314117 0.0198554 0)
(0.0290556 0.0158222 0)
(0.0270877 0.0126361 0)
(0.0254268 0.0101767 0)
(0.0240332 0.00825556 0)
(0.0228641 0.00673238 0)
(0.0218843 0.0055095 0)
(0.0210655 0.00451664 0)
(0.0203843 0.00370252 0)
(0.0198206 0.00302936 0)
(0.0193579 0.00246883 0)
(0.018982 0.00199938 0)
(0.0186807 0.00160451 0)
(0.0184435 0.00127131 0)
(0.0182613 0.000989683 0)
(0.0181261 0.000751457 0)
(0.0180312 0.000550089 0)
(0.0179705 0.000380168 0)
(0.0179385 0.000237264 0)
(0.0179308 0.000117645 0)
(0.0179433 1.81552e-05 0)
(0.0179724 -6.40086e-05 0)
(0.0180152 -0.000131348 0)
(0.0180688 -0.000185917 0)
(0.0181308 -0.000229329 0)
(0.0181993 -0.000263064 0)
(0.0182725 -0.00028848 0)
(0.0183489 -0.000306817 0)
(0.0184273 -0.000319147 0)
(0.0185066 -0.00032642 0)
(0.0185859 -0.000329454 0)
(0.0186645 -0.000328952 0)
(0.0187417 -0.000325534 0)
(0.0188172 -0.000319754 0)
(0.0188905 -0.000312092 0)
(0.0189614 -0.000302959 0)
(0.0190296 -0.000292702 0)
(0.019095 -0.000281619 0)
(0.0191575 -0.000269965 0)
(0.0192171 -0.000257951 0)
(0.0192737 -0.000245758 0)
(0.0193274 -0.000233534 0)
(0.0193782 -0.000221402 0)
(0.0194261 -0.000209459 0)
(0.0194713 -0.000197786 0)
(0.0195138 -0.000186444 0)
(0.0195538 -0.000175481 0)
(0.0195913 -0.000164931 0)
(0.0196264 -0.000154818 0)
(0.0196594 -0.000145157 0)
(0.0196902 -0.000135955 0)
(0.019719 -0.000127215 0)
(0.0197458 -0.000118935 0)
(0.0197709 -0.000111108 0)
(0.0197944 -0.000103725 0)
(0.0198162 -9.67734e-05 0)
(0.0198365 -9.02386e-05 0)
(0.0198555 -8.41042e-05 0)
(0.0198731 -7.83529e-05 0)
(0.0198895 -7.29685e-05 0)
(0.0199048 -6.79339e-05 0)
(0.019919 -6.32313e-05 0)
(0.0199322 -5.88443e-05 0)
(0.0199445 -5.4756e-05 0)
(0.0199559 -5.09507e-05 0)
(0.0199665 -4.74126e-05 0)
(0.0199764 -4.41252e-05 0)
(0.0199856 -4.10742e-05 0)
(0.0199942 -3.8245e-05 0)
(0.0200022 -3.56253e-05 0)
(0.0200096 -3.32019e-05 0)
(0.0200165 -3.0963e-05 0)
(0.0200229 -2.88974e-05 0)
(0.020029 -2.69948e-05 0)
(0.0200346 -2.52454e-05 0)
(0.0200399 -2.36407e-05 0)
(0.0200448 -2.21714e-05 0)
(0.0200494 -2.08301e-05 0)
(0.0200538 -1.96093e-05 0)
(0.0200579 -1.85029e-05 0)
(0.0200618 -1.75047e-05 0)
(0.0200655 -1.66094e-05 0)
(0.0200689 -1.58118e-05 0)
(0.0200723 -1.51074e-05 0)
(0.0200755 -1.44923e-05 0)
(0.0200785 -1.39639e-05 0)
(0.0200815 -1.35188e-05 0)
(0.0200844 -1.31552e-05 0)
(0.0200872 -1.287e-05 0)
(0.0200899 -1.26622e-05 0)
(0.0200926 -1.25312e-05 0)
(0.0200953 -1.24766e-05 0)
(0.020098 -1.24976e-05 0)
(0.0201007 -1.25949e-05 0)
(0.0201035 -1.27687e-05 0)
(0.0201063 -1.30205e-05 0)
(0.0201091 -1.3352e-05 0)
(0.020112 -1.37657e-05 0)
(0.0201151 -1.42645e-05 0)
(0.0201182 -1.48512e-05 0)
(0.0201215 -1.55298e-05 0)
(0.0201249 -1.63043e-05 0)
(0.0201285 -1.71796e-05 0)
(0.0201324 -1.81616e-05 0)
(0.0201364 -1.92565e-05 0)
(0.0201407 -2.04715e-05 0)
(0.0201452 -2.18139e-05 0)
(0.0201501 -2.32923e-05 0)
(0.0201553 -2.49165e-05 0)
(0.0201609 -2.6696e-05 0)
(0.0201669 -2.86425e-05 0)
(0.0201733 -3.07685e-05 0)
(0.0201802 -3.30882e-05 0)
(0.0201876 -3.56162e-05 0)
(0.0201955 -3.83683e-05 0)
(0.0202041 -4.13622e-05 0)
(0.0202134 -4.46174e-05 0)
(0.0202234 -4.81548e-05 0)
(0.0202342 -5.19973e-05 0)
(0.0202459 -5.61705e-05 0)
(0.0202585 -6.07005e-05 0)
(0.0202721 -6.56175e-05 0)
(0.0202868 -7.09533e-05 0)
(0.0203027 -7.67438e-05 0)
(0.0203199 -8.30272e-05 0)
(0.0203385 -8.98457e-05 0)
(0.0203586 -9.72449e-05 0)
(0.0203804 -0.000105274 0)
(0.020404 -0.000113987 0)
(0.0204295 -0.000123445 0)
(0.0204572 -0.000133712 0)
(0.0204871 -0.000144859 0)
(0.0205196 -0.000156965 0)
(0.0205547 -0.000170114 0)
(0.0205928 -0.0001844 0)
(0.020634 -0.000199926 0)
(0.0206788 -0.000216805 0)
(0.0207272 -0.000235162 0)
(0.0207798 -0.000255133 0)
(0.0208368 -0.000276868 0)
(0.0208986 -0.000300536 0)
(0.0209657 -0.00032632 0)
(0.0210385 -0.000354426 0)
(0.0211176 -0.00038508 0)
(0.0212034 -0.000418534 0)
(0.0212966 -0.000455069 0)
(0.0213979 -0.000494999 0)
(0.021508 -0.000538675 0)
(0.0216277 -0.000586491 0)
(0.021758 -0.000638888 0)
(0.0218997 -0.000696365 0)
(0.022054 -0.000759485 0)
(0.0222221 -0.000828884 0)
(0.0224053 -0.000905288 0)
(0.0226051 -0.000989519 0)
(0.0228232 -0.00108252 0)
(0.0230613 -0.00118538 0)
(0.0233215 -0.00129934 0)
(0.0236062 -0.00142585 0)
(0.0239179 -0.00156657 0)
(0.0242593 -0.00172347 0)
(0.0246339 -0.00189882 0)
(0.0250452 -0.00209532 0)
(0.0254974 -0.00231615 0)
(0.0259951 -0.0025651 0)
(0.0265437 -0.00284669 0)
(0.0271492 -0.00316638 0)
(0.0278186 -0.00353074 0)
(0.0285596 -0.00394781 0)
(0.0293815 -0.00442745 0)
(0.0302945 -0.00498185 0)
(0.0313105 -0.00562619 0)
(0.0324432 -0.00637953 0)
(0.0337079 -0.00726604 0)
(0.0351224 -0.00831659 0)
(0.0367061 -0.00957105 0)
(0.0384805 -0.0110813 0)
(0.0404684 -0.0129158 0)
(0.0426921 -0.0151653 0)
(0.0451704 -0.0179517 0)
(0.0479125 -0.021441 0)
(0.0509061 -0.0258593 0)
(0.0540976 -0.0315233 0)
(0.0573441 -0.0388636 0)
(0.0603591 -0.0485393 0)
(0.0624855 -0.0613139 0)
(0.0621255 -0.0791472 0)
(0.0596143 -0.102851 0)
(0.0176524 -0.143922 0)
(0.00119489 -0.0334386 0)
(0.00667817 -0.0288118 0)
(0.0150959 -0.0167895 0)
(0.0278067 0.0059477 0)
(0.037 0.0294509 0)
(0.0396335 0.0429932 0)
(0.0388186 0.0465853 0)
(0.0358048 0.0447457 0)
(0.0318839 0.0395513 0)
(0.0289199 0.0333825 0)
(0.0272799 0.0272837 0)
(0.0261782 0.0218685 0)
(0.0251262 0.0174864 0)
(0.0240786 0.0140794 0)
(0.023091 0.0114257 0)
(0.0221923 0.0093292 0)
(0.0213927 0.00765004 0)
(0.0206936 0.0062889 0)
(0.0200918 0.00517386 0)
(0.0195806 0.00425217 0)
(0.0191523 0.00348452 0)
(0.0187988 0.0028413 0)
(0.0185119 0.00229972 0)
(0.0182841 0.00184213 0)
(0.0181081 0.00145458 0)
(0.0179774 0.00112603 0)
(0.0178859 0.00084749 0)
(0.0178282 0.000611681 0)
(0.0177993 0.000412526 0)
(0.0177949 0.000244986 0)
(0.0178109 0.000104786 0)
(0.0178439 -1.17626e-05 0)
(0.0178908 -0.000107888 0)
(0.017949 -0.000186371 0)
(0.0180158 -0.00024964 0)
(0.0180893 -0.00029968 0)
(0.0181676 -0.00033826 0)
(0.0182492 -0.000367014 0)
(0.0183328 -0.000387395 0)
(0.0184172 -0.000400675 0)
(0.0185016 -0.00040797 0)
(0.0185851 -0.000410259 0)
(0.0186672 -0.0004084 0)
(0.0187474 -0.000403145 0)
(0.0188251 -0.00039515 0)
(0.0189003 -0.000384975 0)
(0.0189726 -0.000373103 0)
(0.0190418 -0.000359954 0)
(0.019108 -0.000345883 0)
(0.019171 -0.00033119 0)
(0.0192308 -0.000316128 0)
(0.0192876 -0.000300906 0)
(0.0193412 -0.0002857 0)
(0.0193918 -0.000270652 0)
(0.0194394 -0.000255877 0)
(0.0194843 -0.000241464 0)
(0.0195264 -0.000227484 0)
(0.0195659 -0.000213992 0)
(0.0196029 -0.000201027 0)
(0.0196376 -0.000188614 0)
(0.01967 -0.000176771 0)
(0.0197003 -0.000165505 0)
(0.0197286 -0.000154814 0)
(0.0197549 -0.000144693 0)
(0.0197795 -0.00013513 0)
(0.0198024 -0.000126114 0)
(0.0198238 -0.000117628 0)
(0.0198437 -0.000109656 0)
(0.0198622 -0.000102176 0)
(0.0198794 -9.51689e-05 0)
(0.0198954 -8.86136e-05 0)
(0.0199103 -8.24872e-05 0)
(0.0199241 -7.67671e-05 0)
(0.019937 -7.14319e-05 0)
(0.0199489 -6.64618e-05 0)
(0.01996 -6.18366e-05 0)
(0.0199704 -5.7536e-05 0)
(0.01998 -5.35408e-05 0)
(0.0199889 -4.98337e-05 0)
(0.0199973 -4.63974e-05 0)
(0.020005 -4.32161e-05 0)
(0.0200122 -4.02739e-05 0)
(0.0200189 -3.75559e-05 0)
(0.0200252 -3.50485e-05 0)
(0.020031 -3.27399e-05 0)
(0.0200365 -3.06175e-05 0)
(0.0200416 -2.86704e-05 0)
(0.0200464 -2.68878e-05 0)
(0.0200509 -2.52608e-05 0)
(0.0200551 -2.37802e-05 0)
(0.0200591 -2.24386e-05 0)
(0.0200628 -2.12283e-05 0)
(0.0200664 -2.01426e-05 0)
(0.0200698 -1.91753e-05 0)
(0.020073 -1.83213e-05 0)
(0.0200761 -1.75762e-05 0)
(0.0200791 -1.6936e-05 0)
(0.0200819 -1.6397e-05 0)
(0.0200847 -1.5956e-05 0)
(0.0200874 -1.56107e-05 0)
(0.0200901 -1.53594e-05 0)
(0.0200927 -1.52012e-05 0)
(0.0200953 -1.51353e-05 0)
(0.0200979 -1.51614e-05 0)
(0.0201006 -1.52795e-05 0)
(0.0201032 -1.54906e-05 0)
(0.0201059 -1.57961e-05 0)
(0.0201087 -1.61989e-05 0)
(0.0201115 -1.67013e-05 0)
(0.0201144 -1.73065e-05 0)
(0.0201175 -1.80185e-05 0)
(0.0201206 -1.88417e-05 0)
(0.020124 -1.97807e-05 0)
(0.0201275 -2.08424e-05 0)
(0.0201312 -2.20335e-05 0)
(0.0201351 -2.33615e-05 0)