/*--------------------------------*- C++ -*----------------------------------*\
  =========                 |
  \\      /  F ield         | OpenFOAM: The Open Source CFD Toolbox
   \\    /   O peration     | Website:  https://openfoam.org
    \\  /    A nd           | Version:  dev
     \\/     M anipulation  |
\*---------------------------------------------------------------------------*/
FoamFile
{
    version     2.0;
    format      ascii;
    class       surfaceScalarField;
    location    "9";
    object      phi;
}
// * * * * * * * * * * * * * * * * * * * * * * * * * * * * * * * * * * * * * //

dimensions      [1 0 -1 0 0 0 0];

internalField   nonuniform List<scalar> 
15760
(
3.81696e-06
0.0011548
-3.12878e-06
0.00116556
-3.14133e-05
0.00118689
0.00117004
-4.28577e-05
6.31733e-06
0.00114849
1.31243e-06
0.00117056
-2.26614e-05
0.00121086
0.00121763
-7.0249e-05
2.05703e-05
0.00112792
3.08754e-05
0.00116026
3.43528e-05
0.00120739
0.00125882
-6.83704e-06
4.55469e-05
0.00108237
8.41683e-05
0.00112164
0.000132498
0.00115906
0.00123632
0.000154999
7.14127e-05
0.00101096
0.000141134
0.00105192
0.000230017
0.00107018
0.00114353
0.000322809
8.8756e-05
0.0009222
0.000179013
0.00096166
0.000290319
0.000958868
0.00100847
0.000425381
9.5227e-05
0.000826972
0.000192307
0.00086458
0.000305841
0.000845334
0.000860826
0.000453482
9.37684e-05
0.000733204
0.000188268
0.00077008
0.000289401
0.000744201
0.000728332
0.000421896
9.00464e-05
0.000643158
0.000177304
0.000682822
0.000262362
0.000659144
0.000624314
0.000366381
8.64799e-05
0.000556679
0.000165191
0.000604111
0.000237635
0.000586701
0.000544416
0.000317534
7.85247e-05
0.000478154
0.000148953
0.000533683
0.000213175
0.000522479
0.000480436
0.000277155
6.36811e-05
0.000414472
0.000125557
0.000471808
0.000183249
0.000464786
0.000427819
0.000235867
4.73745e-05
0.000367098
9.98451e-05
0.000419337
0.000150074
0.000414557
0.000384655
0.000193238
3.52282e-05
0.00033187
7.82215e-05
0.000376344
0.000120017
0.000372762
0.000349506
0.000155166
2.77515e-05
0.000304118
6.22546e-05
0.000341841
9.60142e-05
0.000339002
0.000320891
0.000124629
2.29141e-05
0.000281204
5.04776e-05
0.000314277
7.755e-05
0.00031193
0.000297547
0.000100895
1.91889e-05
0.000262015
4.13491e-05
0.000292117
6.31887e-05
0.00029009
0.000278464
8.22712e-05
1.604e-05
0.000245975
3.40188e-05
0.000274139
5.17775e-05
0.000272331
0.00026283
6.74119e-05
1.33516e-05
0.000232623
2.80407e-05
0.000259449
4.25568e-05
0.000257815
0.000249995
5.53912e-05
1.10727e-05
0.000221551
2.31216e-05
0.0002474
3.50134e-05
0.000245924
0.000239454
4.5555e-05
9.14772e-06
0.000212403
1.90421e-05
0.000237506
2.87808e-05
0.000236185
0.000230807
3.74273e-05
7.52172e-06
0.000204881
1.56351e-05
0.000229393
2.35893e-05
0.000228231
0.000223741
3.06555e-05
6.14634e-06
0.000198735
1.27721e-05
0.000222767
1.92354e-05
0.000221768
0.000218003
2.49736e-05
4.98064e-06
0.000193754
1.03536e-05
0.000217394
1.55643e-05
0.000216557
0.000213388
2.01796e-05
3.99049e-06
0.000189764
8.30206e-06
0.000213082
1.24555e-05
0.000212403
0.000209726
1.61168e-05
3.1479e-06
0.000186616
6.55682e-06
0.000209674
9.81504e-06
0.000209145
0.000206878
1.26635e-05
2.42995e-06
0.000184186
5.06947e-06
0.000207034
7.56813e-06
0.000206647
0.000204723
9.72281e-06
1.81791e-06
0.000182368
3.80082e-06
0.000205051
5.65484e-06
0.000204793
0.00020316
7.21774e-06
1.29643e-06
0.000181072
2.71948e-06
0.000203628
4.02654e-06
0.000203485
0.000202101
5.08538e-06
8.52356e-07
0.000180219
1.79918e-06
0.000202681
2.64332e-06
0.000202641
0.00020147
3.27454e-06
4.7486e-07
0.000179744
1.0191e-06
0.000202137
1.4733e-06
0.000202187
0.0002012
1.74306e-06
1.52919e-07
0.000179591
3.62948e-07
0.000201927
4.90443e-07
0.00020206
0.000201236
4.55285e-07
-1.00644e-07
0.000179692
-1.7471e-07
0.000202001
-3.27487e-07
0.000202212
0.000201529
-6.21163e-07
-3.26197e-07
0.000180018
-6.35344e-07
0.00020231
-1.01447e-06
0.000202592
0.000202033
-1.51863e-06
-5.10746e-07
0.000180529
-1.01633e-06
0.000202816
-1.58413e-06
0.000203159
0.000202709
-2.25956e-06
-6.60142e-07
0.000181189
-1.32522e-06
0.000203481
-2.04509e-06
0.000203879
0.000203522
-2.85853e-06
-7.78881e-07
0.000181968
-1.57117e-06
0.000204273
-2.41169e-06
0.00020472
0.000204444
-3.33349e-06
-8.71247e-07
0.000182839
-1.76279e-06
0.000205165
-2.69679e-06
0.000205654
0.000205449
-3.70118e-06
-9.40973e-07
0.00018378
-1.90771e-06
0.000206131
-2.91165e-06
0.000206658
0.000206513
-3.97634e-06
-9.91207e-07
0.000184771
-2.01244e-06
0.000207153
-3.06604e-06
0.000207711
0.000207619
-4.1718e-06
-1.02473e-06
0.000185796
-2.08266e-06
0.000208211
-3.16857e-06
0.000208797
0.000208749
-4.299e-06
-1.04403e-06
0.00018684
-2.1234e-06
0.00020929
-3.22694e-06
0.000209901
0.000209891
-4.36834e-06
-1.05127e-06
0.000187891
-2.13929e-06
0.000210378
-3.2481e-06
0.00021101
0.000211031
-4.38851e-06
-1.04835e-06
0.00018894
-2.13424e-06
0.000211464
-3.23772e-06
0.000212113
0.000212161
-4.36724e-06
-1.0369e-06
0.000189977
-2.11163e-06
0.000212539
-3.20094e-06
0.000213202
0.000213272
-4.31179e-06
-1.01846e-06
0.000190995
-2.07464e-06
0.000213595
-3.14278e-06
0.00021427
0.000214357
-4.22847e-06
-9.94461e-07
0.000191989
-2.02602e-06
0.000214626
-3.06747e-06
0.000215312
0.000215413
-4.12275e-06
-9.66026e-07
0.000192955
-1.9682e-06
0.000215628
-2.97851e-06
0.000216322
0.000216433
-3.99942e-06
-9.34111e-07
0.00019389
-1.90334e-06
0.000216598
-2.87901e-06
0.000217298
0.000217417
-3.8626e-06
-8.99591e-07
0.000194789
-1.83318e-06
0.000217531
-2.77168e-06
0.000218236
0.000218361
-3.71583e-06
-8.63245e-07
0.000195652
-1.75926e-06
0.000218427
-2.65886e-06
0.000219136
0.000219264
-3.56215e-06
-8.25738e-07
0.000196478
-1.68287e-06
0.000219284
-2.54251e-06
0.000219996
0.000220126
-3.40414e-06
-7.87596e-07
0.000197266
-1.60514e-06
0.000220102
-2.42429e-06
0.000220815
0.000220946
-3.24401e-06
-7.49266e-07
0.000198015
-1.52703e-06
0.00022088
-2.30563e-06
0.000221593
0.000221724
-3.08361e-06
-7.11124e-07
0.000198726
-1.44929e-06
0.000221618
-2.18767e-06
0.000222332
0.000222461
-2.92444e-06
-6.73489e-07
0.0001994
-1.37259e-06
0.000222317
-2.07137e-06
0.000223031
0.000223157
-2.76775e-06
-6.36613e-07
0.000200036
-1.29746e-06
0.000222978
-1.95749e-06
0.000223691
0.000223814
-2.61453e-06
-6.00701e-07
0.000200637
-1.22428e-06
0.000223601
-1.84666e-06
0.000224313
0.000224433
-2.46559e-06
-5.6591e-07
0.000201203
-1.15337e-06
0.000224189
-1.73936e-06
0.000224899
0.000225015
-2.32152e-06
-5.32361e-07
0.000201735
-1.08498e-06
0.000224741
-1.63593e-06
0.00022545
0.000225562
-2.18277e-06
-5.00135e-07
0.000202235
-1.0193e-06
0.000225261
-1.53663e-06
0.000225967
0.000226075
-2.04967e-06
-4.6929e-07
0.000202705
-9.56437e-07
0.000225748
-1.44163e-06
0.000226452
0.000226556
-1.92244e-06
-4.39859e-07
0.000203144
-8.96463e-07
0.000226204
-1.35103e-06
0.000226907
0.000227006
-1.80118e-06
-4.11858e-07
0.000203556
-8.39403e-07
0.000226632
-1.26487e-06
0.000227332
0.000227427
-1.68592e-06
-3.85283e-07
0.000203942
-7.85265e-07
0.000227032
-1.18314e-06
0.00022773
0.00022782
-1.57663e-06
-3.60125e-07
0.000204302
-7.34008e-07
0.000227406
-1.10578e-06
0.000228102
0.000228188
-1.47324e-06
-3.36362e-07
0.000204638
-6.85579e-07
0.000227755
-1.03271e-06
0.000228449
0.000228531
-1.37564e-06
-3.13953e-07
0.000204952
-6.39897e-07
0.000228081
-9.63838e-07
0.000228773
0.000228851
-1.28366e-06
-2.92846e-07
0.000205245
-5.96906e-07
0.000228385
-8.99008e-07
0.000229075
0.000229149
-1.19713e-06
-2.73009e-07
0.000205518
-5.56508e-07
0.000228668
-8.38092e-07
0.000229357
0.000229427
-1.11585e-06
-2.54397e-07
0.000205772
-5.1859e-07
0.000228933
-7.80928e-07
0.000229619
0.000229685
-1.03962e-06
-2.36953e-07
0.000206009
-4.83053e-07
0.000229179
-7.2737e-07
0.000229863
0.000229926
-9.68217e-07
-2.20619e-07
0.00020623
-4.49795e-07
0.000229408
-6.77255e-07
0.000230091
0.00023015
-9.01408e-07
-2.05353e-07
0.000206435
-4.18708e-07
0.000229621
-6.30407e-07
0.000230303
0.000230359
-8.38965e-07
-1.91101e-07
0.000206626
-3.89673e-07
0.00022982
-5.86662e-07
0.0002305
0.000230553
-7.8068e-07
-1.77807e-07
0.000206804
-3.62586e-07
0.000230005
-5.45865e-07
0.000230683
0.000230733
-7.26336e-07
-1.65414e-07
0.000206969
-3.37336e-07
0.000230177
-5.07862e-07
0.000230853
0.000230901
-6.75711e-07
-1.53878e-07
0.000207123
-3.13835e-07
0.000230337
-4.72491e-07
0.000231012
0.000231057
-6.28592e-07
-1.43136e-07
0.000207266
-2.92001e-07
0.000230485
-4.39587e-07
0.00023116
0.000231202
-5.84784e-07
-1.33167e-07
0.000207399
-2.71701e-07
0.000230624
-4.09021e-07
0.000231297
0.000231338
-5.44094e-07
-1.23916e-07
0.000207523
-2.52852e-07
0.000230753
-3.80656e-07
0.000231425
0.000231463
-5.06347e-07
-1.15332e-07
0.000207639
-2.35373e-07
0.000230873
-3.54364e-07
0.000231544
0.00023158
-4.71352e-07
-1.0738e-07
0.000207746
-2.19197e-07
0.000230985
-3.30008e-07
0.000231655
0.000231689
-4.38947e-07
-1.00024e-07
0.000207846
-2.04233e-07
0.000231089
-3.07484e-07
0.000231758
0.000231791
-4.0897e-07
-9.32366e-08
0.000207939
-1.90403e-07
0.000231186
-2.8667e-07
0.000231854
0.000231885
-3.81282e-07
-8.69704e-08
0.000208026
-1.77639e-07
0.000231277
-2.67469e-07
0.000231944
0.000231974
-3.55748e-07
-8.11916e-08
0.000208107
-1.65882e-07
0.000231361
-2.49786e-07
0.000232028
0.000232056
-3.32221e-07
-7.58748e-08
0.000208183
-1.55074e-07
0.000231441
-2.33523e-07
0.000232106
0.000232133
-3.10594e-07
-7.10017e-08
0.000208254
-1.45149e-07
0.000231515
-2.18599e-07
0.00023218
0.000232205
-2.90737e-07
-6.65305e-08
0.000208321
-1.36067e-07
0.000231584
-2.04931e-07
0.000232249
0.000232273
-2.72562e-07
-6.24466e-08
0.000208383
-1.27765e-07
0.00023165
-1.92449e-07
0.000232313
0.000232336
-2.55972e-07
-5.8726e-08
0.000208442
-1.20208e-07
0.000231711
-1.81089e-07
0.000232374
0.000232396
-2.40869e-07
-5.53515e-08
0.000208497
-1.13356e-07
0.000231769
-1.70785e-07
0.000232432
0.000232452
-2.27173e-07
-5.23044e-08
0.00020855
-1.0717e-07
0.000231824
-1.6148e-07
0.000232486
0.000232506
-2.14808e-07
-4.95652e-08
0.000208599
-1.01614e-07
0.000231876
-1.53127e-07
0.000232537
0.000232556
-2.03706e-07
-4.71223e-08
0.000208646
-9.66521e-08
0.000231926
-1.45682e-07
0.000232586
0.000232605
-1.93814e-07
-4.49627e-08
0.000208691
-9.22684e-08
0.000231973
-1.39101e-07
0.000232633
0.00023265
-1.85069e-07
-4.3065e-08
0.000208734
-8.84368e-08
0.000232018
-1.33348e-07
0.000232678
0.000232695
-1.77423e-07
-4.14199e-08
0.000208776
-8.51387e-08
0.000232062
-1.28389e-07
0.000232721
0.000232737
-1.70839e-07
-4.00354e-08
0.000208816
-8.23469e-08
0.000232104
-1.24197e-07
0.000232763
0.000232778
-1.65274e-07
-3.88919e-08
0.000208855
-8.00432e-08
0.000232145
-1.20755e-07
0.000232804
0.000232818
-1.60711e-07
-3.79845e-08
0.000208893
-7.82313e-08
0.000232186
-1.18041e-07
0.000232844
0.000232857
-1.57114e-07
-3.7309e-08
0.00020893
-7.68924e-08
0.000232225
-1.16043e-07
0.000232883
0.000232896
-1.54463e-07
-3.68612e-08
0.000208967
-7.60224e-08
0.000232264
-1.14749e-07
0.000232922
0.000232934
-1.52749e-07
-3.66346e-08
0.000209003
-7.56163e-08
0.000232303
-1.14148e-07
0.00023296
0.000232971
-1.51965e-07
-3.66404e-08
0.00020904
-7.56667e-08
0.000232342
-1.14247e-07
0.000232999
0.000233009
-1.52107e-07
-3.6867e-08
0.000209077
-7.61859e-08
0.000232382
-1.15046e-07
0.000233038
0.000233047
-1.53175e-07
-3.73231e-08
0.000209114
-7.71719e-08
0.000232422
-1.16547e-07
0.000233077
0.000233086
-1.55184e-07
-3.80149e-08
0.000209152
-7.86309e-08
0.000232462
-1.18764e-07
0.000233117
0.000233125
-1.58145e-07
-3.89397e-08
0.000209191
-8.05728e-08
0.000232504
-1.21708e-07
0.000233158
0.000233166
-1.62077e-07
-4.00999e-08
0.000209231
-8.30134e-08
0.000232547
-1.25405e-07
0.000233201
0.000233207
-1.67005e-07
-4.15167e-08
0.000209273
-8.59671e-08
0.000232591
-1.29875e-07
0.000233245
0.00023325
-1.72966e-07
-4.31875e-08
0.000209316
-8.94565e-08
0.000232637
-1.3515e-07
0.00023329
0.000233295
-1.79994e-07
-4.51324e-08
0.000209361
-9.34986e-08
0.000232686
-1.41271e-07
0.000233338
0.000233342
-1.8814e-07
-4.73555e-08
0.000209408
-9.81245e-08
0.000232737
-1.48261e-07
0.000233388
0.000233391
-1.97448e-07
-4.98754e-08
0.000209458
-1.03365e-07
0.00023279
-1.56172e-07
0.000233441
0.000233443
-2.07987e-07
-5.27024e-08
0.000209511
-1.09245e-07
0.000232847
-1.65055e-07
0.000233497
0.000233498
-2.19814e-07
-5.58656e-08
0.000209567
-1.1581e-07
0.000232907
-1.74966e-07
0.000233556
0.000233556
-2.33014e-07
-5.93846e-08
0.000209626
-1.23093e-07
0.00023297
-1.85968e-07
0.000233619
0.000233618
-2.47668e-07
-6.32753e-08
0.000209689
-1.31147e-07
0.000233038
-1.98141e-07
0.000233686
0.000233683
-2.63874e-07
-6.75685e-08
0.000209757
-1.40031e-07
0.000233111
-2.11551e-07
0.000233757
0.000233754
-2.81728e-07
-7.22795e-08
0.000209829
-1.4979e-07
0.000233188
-2.2629e-07
0.000233834
0.000233829
-3.0134e-07
-7.7446e-08
0.000209907
-1.60491e-07
0.000233271
-2.42442e-07
0.000233916
0.000233909
-3.2284e-07
-8.30986e-08
0.00020999
-1.72205e-07
0.00023336
-2.60113e-07
0.000234004
0.000233995
-3.46379e-07
-8.92843e-08
0.000210079
-1.85004e-07
0.000233456
-2.79432e-07
0.000234098
0.000234088
-3.72091e-07
-9.6033e-08
0.000210175
-1.9897e-07
0.000233559
-3.00518e-07
0.0002342
0.000234188
-4.0015e-07
-1.03394e-07
0.000210278
-2.14193e-07
0.00023367
-3.23496e-07
0.000234309
0.000234295
-4.30732e-07
-1.11409e-07
0.00021039
-2.30771e-07
0.000233789
-3.48519e-07
0.000234427
0.00023441
-4.64042e-07
-1.20133e-07
0.00021051
-2.48816e-07
0.000233918
-3.7575e-07
0.000234554
0.000234535
-5.00281e-07
-1.29621e-07
0.00021064
-2.68447e-07
0.000234057
-4.0537e-07
0.000234691
0.000234669
-5.39696e-07
-1.39939e-07
0.00021078
-2.89786e-07
0.000234206
-4.37567e-07
0.000234838
0.000234814
-5.82547e-07
-1.51157e-07
0.000210931
-3.12976e-07
0.000234368
-4.72556e-07
0.000234998
0.000234971
-6.29107e-07
-1.63351e-07
0.000211094
-3.38163e-07
0.000234543
-5.10567e-07
0.00023517
0.00023514
-6.79677e-07
-1.76593e-07
0.000211271
-3.65524e-07
0.000234732
-5.51845e-07
0.000235357
0.000235323
-7.34594e-07
-1.9097e-07
0.000211462
-3.95232e-07
0.000234936
-5.96665e-07
0.000235558
0.00023552
-7.94225e-07
-2.06576e-07
0.000211668
-4.2749e-07
0.000235157
-6.45325e-07
0.000235776
0.000235734
-8.58961e-07
-2.23519e-07
0.000211892
-4.62517e-07
0.000235396
-6.98147e-07
0.000236012
0.000235965
-9.29244e-07
-2.41925e-07
0.000212134
-5.00538e-07
0.000235655
-7.55506e-07
0.000236267
0.000236215
-1.00553e-06
-2.61913e-07
0.000212395
-5.41825e-07
0.000235935
-8.1777e-07
0.000236543
0.000236485
-1.08836e-06
-2.8362e-07
0.000212679
-5.86654e-07
0.000236238
-8.85369e-07
0.000236841
0.000236778
-1.17826e-06
-3.07191e-07
0.000212986
-6.35331e-07
0.000236566
-9.58775e-07
0.000237165
0.000237095
-1.27587e-06
-3.32794e-07
0.000213319
-6.88195e-07
0.000236921
-1.03848e-06
0.000237515
0.000237439
-1.38186e-06
-3.60612e-07
0.00021368
-7.45613e-07
0.000237306
-1.12505e-06
0.000237894
0.000237811
-1.49696e-06
-3.90835e-07
0.00021407
-8.08003e-07
0.000237723
-1.21908e-06
0.000238305
0.000238214
-1.62199e-06
-4.23693e-07
0.000214494
-8.75797e-07
0.000238176
-1.32126e-06
0.000238751
0.00023865
-1.75782e-06
-4.59409e-07
0.000214954
-9.49484e-07
0.000238666
-1.43232e-06
0.000239234
0.000239123
-1.90542e-06
-4.98254e-07
0.000215452
-1.02961e-06
0.000239197
-1.55305e-06
0.000239757
0.000239636
-2.06586e-06
-5.40511e-07
0.000215992
-1.11675e-06
0.000239773
-1.68434e-06
0.000240325
0.000240192
-2.24032e-06
-5.86506e-07
0.000216579
-1.21158e-06
0.000240398
-1.82718e-06
0.00024094
0.000240795
-2.43008e-06
-6.36582e-07
0.000217215
-1.31479e-06
0.000241076
-1.98262e-06
0.000241608
0.000241449
-2.63656e-06
-6.91129e-07
0.000217906
-1.42719e-06
0.000241813
-2.15187e-06
0.000242333
0.000242158
-2.86132e-06
-7.50573e-07
0.000218657
-1.54965e-06
0.000242612
-2.33622e-06
0.000243119
0.000242928
-3.10611e-06
-8.15404e-07
0.000219472
-1.68315e-06
0.000243479
-2.53714e-06
0.000243973
0.000243764
-3.37284e-06
-8.86144e-07
0.000220359
-1.82876e-06
0.000244422
-2.75625e-06
0.000244901
0.000244671
-3.66364e-06
-9.63396e-07
0.000221322
-1.98769e-06
0.000245446
-2.99534e-06
0.000245909
0.000245657
-3.98086e-06
-1.0478e-06
0.00022237
-2.16128e-06
0.00024656
-3.25639e-06
0.000247004
0.000246728
-4.32714e-06
-1.14011e-06
0.00022351
-2.35101e-06
0.000247771
-3.54164e-06
0.000248194
0.000247891
-4.70538e-06
-1.24112e-06
0.000224751
-2.55856e-06
0.000249088
-3.85356e-06
0.000249489
0.000249157
-5.11886e-06
-1.35178e-06
0.000226103
-2.7858e-06
0.000250522
-4.19494e-06
0.000250898
0.000250533
-5.57123e-06
-1.47312e-06
0.000227576
-3.03483e-06
0.000252084
-4.56891e-06
0.000252432
0.000252031
-6.0666e-06
-1.60632e-06
0.000229182
-3.30802e-06
0.000253786
-4.979e-06
0.000254103
0.000253661
-6.60957e-06
-1.75272e-06
0.000230935
-3.60807e-06
0.000255641
-5.4292e-06
0.000255925
0.000255437
-7.20536e-06
-1.91383e-06
0.000232849
-3.93802e-06
0.000257665
-5.92399e-06
0.000257911
0.000257373
-7.85983e-06
-2.09138e-06
0.00023494
-4.30133e-06
0.000259875
-6.46849e-06
0.000260078
0.000259484
-8.57966e-06
-2.28733e-06
0.000237227
-4.70193e-06
0.00026229
-7.06852e-06
0.000262444
0.000261788
-9.37239e-06
-2.50394e-06
0.000239731
-5.14433e-06
0.00026493
-7.73071e-06
0.000265031
0.000264304
-1.02467e-05
-2.7438e-06
0.000242475
-5.63371e-06
0.00026782
-8.4627e-06
0.00026786
0.000267054
-1.12124e-05
-3.00991e-06
0.000245485
-6.17604e-06
0.000270986
-9.27325e-06
0.000270957
0.000270062
-1.22809e-05
-3.30577e-06
0.000248791
-6.77826e-06
0.000274459
-1.01725e-05
0.000274351
0.000273354
-1.34653e-05
-3.63543e-06
0.000252426
-7.44839e-06
0.000278271
-1.11723e-05
0.000278075
0.000276963
-1.47808e-05
-4.00366e-06
0.00025643
-8.19584e-06
0.000282464
-1.22862e-05
0.000282165
0.000280922
-1.6245e-05
-4.41605e-06
0.000260846
-9.03161e-06
0.000287079
-1.35303e-05
0.000286664
0.00028527
-1.78784e-05
-4.87921e-06
0.000265725
-9.9687e-06
0.000292169
-1.49236e-05
0.000291619
0.000290051
-1.97051e-05
-5.40102e-06
0.000271126
-1.10225e-05
0.00029779
-1.64882e-05
0.000297085
0.000295317
-2.17537e-05
-5.9909e-06
0.000277117
-1.22115e-05
0.000304011
-1.82508e-05
0.000303124
0.000301124
-2.40578e-05
-6.66018e-06
0.000283777
-1.35575e-05
0.000310908
-2.02431e-05
0.00030981
0.000307538
-2.66576e-05
-7.42259e-06
0.0002912
-1.50873e-05
0.000318573
-2.25033e-05
0.000317225
0.000314636
-2.96011e-05
-8.29486e-06
0.000299495
-1.68333e-05
0.000327111
-2.50777e-05
0.00032547
0.000322505
-3.29465e-05
-9.2976e-06
0.000308792
-1.88349e-05
0.000336649
-2.80226e-05
0.000334658
0.000331246
-3.67641e-05
-1.04564e-05
0.000319249
-2.11412e-05
0.000347333
-3.14076e-05
0.000344924
0.000340979
-4.11399e-05
-1.18031e-05
0.000331052
-2.3813e-05
0.000359343
-3.53184e-05
0.000356429
0.00035184
-4.618e-05
-1.33779e-05
0.000344429
-2.69269e-05
0.000372892
-3.98625e-05
0.000369365
0.000363994
-5.20158e-05
-1.52321e-05
0.000359662
-3.05799e-05
0.00038824
-4.51754e-05
0.00038396
0.00037763
-5.88118e-05
-1.74316e-05
0.000377093
-3.48963e-05
0.000405705
-5.14297e-05
0.000400494
0.000392976
-6.67757e-05
-2.00623e-05
0.000397155
-4.00374e-05
0.00042568
-5.88475e-05
0.000419304
0.0004103
-7.61719e-05
-2.32385e-05
0.000420394
-4.62153e-05
0.000448657
-6.7718e-05
0.000440807
0.000429923
-8.73411e-05
-2.71083e-05
0.000447502
-5.37111e-05
0.000475259
-7.84228e-05
0.000465518
0.000452226
-0.000100726
-3.18877e-05
0.00047939
-6.29074e-05
0.000506279
-9.1471e-05
0.000494082
0.000477664
-0.000116909
-3.78376e-05
0.000517228
-7.43227e-05
0.000542764
-0.000107555
0.000527314
0.000506772
-0.000136663
-4.54022e-05
0.00056263
-8.86926e-05
0.000586055
-0.000127621
0.000566242
0.000540187
-0.000161036
-5.50876e-05
0.000617717
-0.000107049
0.000638016
-0.000153006
0.000612199
0.000578624
-0.000191443
-6.77824e-05
0.0006855
-0.000130882
0.000701116
-0.000185594
0.000666911
0.000622897
-0.000229866
-8.47745e-05
0.000770274
-0.000162474
0.000778815
-0.000228127
0.000732564
0.000673805
-0.000279035
-0.000107522
0.000877796
-0.000204923
0.000876216
-0.000284731
0.000812372
0.000732038
-0.000342964
-0.000140035
0.00101783
-0.000263868
0.00100005
-0.000361356
0.00090986
0.000797781
-0.000427098
-0.00018356
0.00120139
-0.000345484
0.00116197
-0.000468598
0.00103297
0.000870188
-0.000541006
-0.000244659
0.00144605
-0.000461751
0.00137906
-0.000618886
0.00119011
0.000946066
-0.000694764
-0.000347445
0.00179349
-0.000636359
0.00166798
-0.000848774
0.00140252
0.00102364
-0.000926349
-0.000401018
0.00219451
-0.000804864
0.00207183
-0.00114367
0.00174133
0.00112019
-0.00124022
-0.00076783
-0.0014043
-0.00178489
-0.00195283
0.000211301
-0.000254159
0.000414277
-0.000273225
0.000625965
-0.000218526
0.000796362
-1.53989e-05
0.000853009
0.000266162
0.000821295
0.000457094
0.000741498
0.000533279
0.000642087
0.000521307
0.000548884
0.000459585
0.00047453
0.000391889
0.000418055
0.00033363
0.00037591
0.000278012
0.000343635
0.000225513
0.000317609
0.000181191
0.000295981
0.000146257
0.00027791
0.000118966
0.000262828
9.73536e-05
0.000250246
7.99938e-05
0.00023976
6.5877e-05
0.000231045
5.42704e-05
0.000223836
4.46361e-05
0.000217916
3.65749e-05
0.000213105
2.97849e-05
0.000209249
2.4036e-05
0.000206216
1.91494e-05
0.000203894
1.49856e-05
0.000202184
1.14328e-05
0.000201
8.40165e-06
0.000200267
5.81884e-06
0.000199917
3.62425e-06
0.000199892
1.76749e-06
0.000200143
2.05266e-07
0.000200623
-1.1012e-06
0.00020129
-2.18595e-06
0.000202107
-3.07671e-06
0.000203044
-3.79551e-06
0.000204073
-4.36276e-06
0.000205171
-4.79858e-06
0.000206315
-5.12114e-06
0.00020749
-5.34637e-06
0.000208679
-5.48832e-06
0.00020987
-5.55923e-06
0.000211052
-5.57012e-06
0.000212216
-5.531e-06
0.000213354
-5.45062e-06
0.000214463
-5.33668e-06
0.000215536
-5.19591e-06
0.000216571
-5.03412e-06
0.000217564
-4.85636e-06
0.000218515
-4.66701e-06
0.000219423
-4.46984e-06
0.000220287
-4.26798e-06
0.000221107
-4.06409e-06
0.000221884
-3.86042e-06
0.000222618
-3.65879e-06
0.000223311
-3.46069e-06
0.000223964
-3.26735e-06
0.000224578
-3.07966e-06
0.000225155
-2.89835e-06
0.000225696
-2.72395e-06
0.000226203
-2.55684e-06
0.000226678
-2.39724e-06
0.000227122
-2.24526e-06
0.000227537
-2.10092e-06
0.000227925
-1.96417e-06
0.000228286
-1.83489e-06
0.000228624
-1.71292e-06
0.000228938
-1.59802e-06
0.000229231
-1.48997e-06
0.000229503
-1.38854e-06
0.000229757
-1.29344e-06
0.000229993
-1.20439e-06
0.000230213
-1.1211e-06
0.000230417
-1.04329e-06
0.000230607
-9.70687e-07
0.000230784
-9.03009e-07
0.000230948
-8.39976e-07
0.000231101
-7.81323e-07
0.000231243
-7.26807e-07
0.000231375
-6.7618e-07
0.000231498
-6.29213e-07
0.000231612
-5.85687e-07
0.000231719
-5.45382e-07
0.000231818
-5.0811e-07
0.00023191
-4.73695e-07
0.000231997
-4.41943e-07
0.000232077
-4.12703e-07
0.000232152
-3.85814e-07
0.000232223
-3.61152e-07
0.000232289
-3.3857e-07
0.000232351
-3.17958e-07
0.000232409
-2.99192e-07
0.000232464
-2.82176e-07
0.000232516
-2.6682e-07
0.000232565
-2.53041e-07
0.000232612
-2.40752e-07
0.000232657
-2.29895e-07
0.0002327
-2.2041e-07
0.000232742
-2.12234e-07
0.000232782
-2.05335e-07
0.000232821
-1.99664e-07
0.000232859
-1.95199e-07
0.000232896
-1.91916e-07
0.000232933
-1.89794e-07
0.00023297
-1.88827e-07
0.000233007
-1.89007e-07
0.000233044
-1.90347e-07
0.000233082
-1.92847e-07
0.00023312
-1.96532e-07
0.00023316
-2.01424e-07
0.0002332
-2.07554e-07
0.000233242
-2.14965e-07
0.000233286
-2.23706e-07
0.000233331
-2.33828e-07
0.000233379
-2.45402e-07
0.00023343
-2.58494e-07
0.000233483
-2.73202e-07
0.00023354
-2.89608e-07
0.0002336
-3.07817e-07
0.000233664
-3.27944e-07
0.000233733
-3.50127e-07
0.000233806
-3.745e-07
0.000233884
-4.01216e-07
0.000233968
-4.30454e-07
0.000234058
-4.62399e-07
0.000234156
-4.97254e-07
0.00023426
-5.3525e-07
0.000234373
-5.76619e-07
0.000234494
-6.21642e-07
0.000234625
-6.70602e-07
0.000234766
-7.23821e-07
0.000234919
-7.81645e-07
0.000235083
-8.4445e-07
0.000235262
-9.12649e-07
0.000235454
-9.86694e-07
0.000235662
-1.06708e-06
0.000235887
-1.15434e-06
0.000236131
-1.24905e-06
0.000236394
-1.35186e-06
0.000236679
-1.46346e-06
0.000236988
-1.58461e-06
0.000237322
-1.71614e-06
0.000237684
-1.85898e-06
0.000238077
-2.0141e-06
0.000238501
-2.18261e-06
0.000238962
-2.36569e-06
0.00023946
-2.56468e-06
0.000240001
-2.78101e-06
0.000240587
-3.01628e-06
0.000241223
-3.27222e-06
0.000241912
-3.55077e-06
0.00024266
-3.85407e-06
0.000243472
-4.18448e-06
0.000244353
-4.5446e-06
0.000245309
-4.93733e-06
0.000246348
-5.36589e-06
0.000247477
-5.83385e-06
0.000248703
-6.34522e-06
0.000250036
-6.90447e-06
0.000251486
-7.51661e-06
0.000253064
-8.18725e-06
0.000254781
-8.92273e-06
0.000256652
-9.73019e-06
0.00025869
-1.06177e-05
0.000260912
-1.15945e-05
0.000263336
-1.26709e-05
0.000265982
-1.38589e-05
0.000268874
-1.51722e-05
0.000272035
-1.66265e-05
0.000275494
-1.82399e-05
0.000279283
-2.00335e-05
0.000283436
-2.20318e-05
0.000287994
-2.42633e-05
0.000293002
-2.67617e-05
0.000298511
-2.95666e-05
0.000304578
-3.2725e-05
0.00031127
-3.62929e-05
0.000318661
-4.03376e-05
0.000326837
-4.49402e-05
0.000335896
-5.01988e-05
0.00034595
-5.62338e-05
0.000357127
-6.31928e-05
0.000369574
-7.12588e-05
0.000383458
-8.06602e-05
0.000398971
-9.1684e-05
0.000416324
-0.000104694
0.000435754
-0.000120156
0.000457513
-0.000138668
0.000481859
-0.000161009
0.00050902
-0.000188197
0.000539155
-0.000221578
0.000572221
-0.000262932
0.000607831
-0.000314645
0.000644771
-0.000379905
0.000680631
-0.000462959
0.000709183
-0.000569557
0.000720939
-0.00070652
0.000678673
-0.000884084
0.000540092
-0.00110164
-0.00141274
0.000106896
-0.000361055
0.000194652
-0.00036098
0.00027065
-0.000294524
0.000370072
-0.000114821
0.000458451
0.000177782
0.000494991
0.000420552
0.000493308
0.00053496
0.000461829
0.000552786
0.000412353
0.000509062
0.000366357
0.000437886
0.000334067
0.000365921
0.000312609
0.00029947
0.000295932
0.000242191
0.000281058
0.000196065
0.00026755
0.000159766
0.0002555
0.000131016
0.000244919
0.000107935
0.000235742
8.91701e-05
0.000227875
7.3744e-05
0.000221207
6.09386e-05
0.000215624
5.02196e-05
0.000211013
4.11855e-05
0.00020727
3.35284e-05
0.000204295
2.70107e-05
0.000201999
2.14459e-05
0.000200298
1.66866e-05
0.000199117
1.26139e-05
0.000198387
9.13165e-06
0.000198045
6.16015e-06
0.000198036
3.63303e-06
0.00019831
1.49426e-06
0.00019882
-3.05325e-07
0.000199527
-1.80835e-06
0.000200393
-3.05189e-06
0.000201385
-4.06792e-06
0.000202473
-4.88346e-06
0.000203633
-5.52315e-06
0.000204844
-6.00986e-06
0.000206087
-6.36428e-06
0.000207346
-6.60498e-06
0.000208606
-6.74863e-06
0.000209857
-6.81e-06
0.000211089
-6.80209e-06
0.000212295
-6.73649e-06
0.000213467
-6.62348e-06
0.000214603
-6.47212e-06
0.000215697
-6.29033e-06
0.000216748
-6.08493e-06
0.000217754
-5.86188e-06
0.000218713
-5.62625e-06
0.000219625
-5.38239e-06
0.000220491
-5.13397e-06
0.000221311
-4.88408e-06
0.000222086
-4.63527e-06
0.000222817
-4.38966e-06
0.000223505
-4.14895e-06
0.000224152
-3.9145e-06
0.00022476
-3.68734e-06
0.00022533
-3.46828e-06
0.000225864
-3.25789e-06
0.000226364
-3.05652e-06
0.000226831
-2.86442e-06
0.000227267
-2.68169e-06
0.000227675
-2.50832e-06
0.000228055
-2.34421e-06
0.000228409
-2.18917e-06
0.000228739
-2.043e-06
0.000229047
-1.90543e-06
0.000229333
-1.77614e-06
0.000229599
-1.65483e-06
0.000229847
-1.54114e-06
0.000230077
-1.43474e-06
0.000230291
-1.33526e-06
0.00023049
-1.24237e-06
0.000230675
-1.15572e-06
0.000230847
-1.07497e-06
0.000231007
-9.99788e-07
0.000231156
-9.29853e-07
0.000231294
-8.64874e-07
0.000231422
-8.04541e-07
0.000231541
-7.48579e-07
0.000231652
-6.96727e-07
0.000231756
-6.48725e-07
0.000231852
-6.04349e-07
0.000231942
-5.63369e-07
0.000232025
-5.25572e-07
0.000232103
-4.90767e-07
0.000232176
-4.58777e-07
0.000232245
-4.29424e-07
0.000232309
-4.02565e-07
0.000232369
-3.78038e-07
0.000232425
-3.55721e-07
0.000232479
-3.35484e-07
0.000232529
-3.17221e-07
0.000232577
-3.00835e-07
0.000232622
-2.86227e-07
0.000232666
-2.73317e-07
0.000232707
-2.62029e-07
0.000232747
-2.52316e-07
0.000232786
-2.44114e-07
0.000232824
-2.3738e-07
0.000232861
-2.32078e-07
0.000232897
-2.28179e-07
0.000232933
-2.25661e-07
0.000232969
-2.24514e-07
0.000233004
-2.24735e-07
0.00023304
-2.26328e-07
0.000233077
-2.29307e-07
0.000233114
-2.33695e-07
0.000233152
-2.39513e-07
0.000233191
-2.46805e-07
0.000233232
-2.55619e-07
0.000233274
-2.66013e-07
0.000233318
-2.78054e-07
0.000233365
-2.91813e-07
0.000233414
-3.0739e-07
0.000233465
-3.24875e-07
0.00023352
-3.44377e-07
0.000233578
-3.66026e-07
0.00023364
-3.89966e-07
0.000233707
-4.16332e-07
0.000233777
-4.45302e-07
0.000233853
-4.77061e-07
0.000233935
-5.11815e-07
0.000234022
-5.49789e-07
0.000234116
-5.91227e-07
0.000234217
-6.36381e-07
0.000234326
-6.85552e-07
0.000234443
-7.39059e-07
0.00023457
-7.97244e-07
0.000234707
-8.60487e-07
0.000234854
-9.29198e-07
0.000235014
-1.00383e-06
0.000235186
-1.08486e-06
0.000235372
-1.17282e-06
0.000235573
-1.26833e-06
0.000235791
-1.37198e-06
0.000236026
-1.48448e-06
0.000236281
-1.60659e-06
0.000236557
-1.73912e-06
0.000236855
-1.88297e-06
0.000237178
-2.03915e-06
0.000237528
-2.20871e-06
0.000237907
-2.39284e-06
0.000238317
-2.59283e-06
0.000238761
-2.81009e-06
0.000239243
-3.04617e-06
0.000239764
-3.30278e-06
0.00024033
-3.5818e-06
0.000240943
-3.88527e-06
0.000241608
-4.21548e-06
0.000242329
-4.57493e-06
0.00024311
-4.96639e-06
0.000243959
-5.39293e-06
0.000244879
-5.85795e-06
0.000245879
-6.36519e-06
0.000246964
-6.91887e-06
0.000248142
-7.52365e-06
0.000249422
-8.18476e-06
0.000250814
-8.908e-06
0.000252326
-9.69995e-06
0.000253972
-1.05679e-05
0.000255762
-1.15203e-05
0.00025771
-1.25663e-05
0.000259832
-1.37165e-05
0.000262145
-1.49831e-05
0.000264665
-1.63796e-05
0.000267415
-1.79218e-05
0.000270416
-1.96277e-05
0.000273694
-2.15178e-05
0.000277277
-2.36162e-05
0.000281195
-2.59504e-05
0.000285485
-2.85527e-05
0.000290184
-3.14608e-05
0.000295336
-3.47188e-05
0.00030099
-3.8379e-05
0.0003072
-4.25031e-05
0.000314027
-4.71648e-05
0.000321539
-5.24522e-05
0.000329812
-5.84713e-05
0.000338928
-6.53503e-05
0.000348981
-7.32455e-05
0.00036007
-8.23479e-05
0.000372302
-9.28925e-05
0.000385789
-0.00010517
0.000400638
-0.000119544
0.000416948
-0.000136465
0.000434785
-0.000156505
0.000454158
-0.000180382
0.000474964
-0.000209004
0.000496905
-0.000243519
0.000519348
-0.000285375
0.000541084
-0.000336381
0.00055993