/*--------------------------------*- C++ -*----------------------------------*\
  =========                 |
  \\      /  F ield         | OpenFOAM: The Open Source CFD Toolbox
   \\    /   O peration     | Website:  https://openfoam.org
    \\  /    A nd           | Version:  dev
     \\/     M anipulation  |
\*---------------------------------------------------------------------------*/
FoamFile
{
    version     2.0;
    format      ascii;
    class       volVectorField;
    location    "9";
    object      U;
}
// * * * * * * * * * * * * * * * * * * * * * * * * * * * * * * * * * * * * * //

dimensions      [0 1 -1 0 0 0 0];

internalField   nonuniform List<vector> 
8000
(
(0.0997494 9.46911e-05 0)
(0.100124 -0.000159369 0)
(0.100492 -0.00107296 0)
(0.0993868 0.000130148 0)
(0.0993445 0.000466768 0)
(0.100687 0.000598625 0)
(0.102946 -0.0015689 0)
(0.100774 0.000517423 0)
(0.0984511 0.00112826 0)
(0.100806 0.00296905 0)
(0.104855 0.00172198 0)
(0.106519 0.00472564 0)
(0.0959953 0.00209279 0)
(0.0991698 0.00631663 0)
(0.103386 0.00858714 0)
(0.109702 0.0136678 0)
(0.0911231 0.00324653 0)
(0.0946999 0.00933048 0)
(0.0973992 0.0156539 0)
(0.105155 0.0241569 0)
(0.0840045 0.00431638 0)
(0.0875432 0.0111998 0)
(0.0881868 0.0197481 0)
(0.0940727 0.0314571 0)
(0.0756091 0.00501359 0)
(0.0789744 0.0118902 0)
(0.0777594 0.0207001 0)
(0.0805364 0.0332463 0)
(0.0671894 0.00526987 0)
(0.0703595 0.011659 0)
(0.0682077 0.0199044 0)
(0.0678657 0.0307678 0)
(0.0593788 0.00540285 0)
(0.0625098 0.010993 0)
(0.0601874 0.0186125 0)
(0.0576525 0.0271145 0)
(0.0516191 0.0055442 0)
(0.0553016 0.0102588 0)
(0.0534959 0.0173151 0)
(0.0499465 0.0240296 0)
(0.0442589 0.00516233 0)
(0.0488186 0.00922472 0)
(0.0476567 0.0157208 0)
(0.0438827 0.0213244 0)
(0.0380463 0.00403146 0)
(0.0430965 0.00765406 0)
(0.0423686 0.0134902 0)
(0.0388785 0.0183175 0)
(0.0333587 0.00273842 0)
(0.0381904 0.00594308 0)
(0.0376957 0.0109715 0)
(0.0347915 0.0150519 0)
(0.029931 0.00182088 0)
(0.0341089 0.00459633 0)
(0.0337485 0.00872529 0)
(0.0314816 0.0120664 0)
(0.0272974 0.00131364 0)
(0.0308048 0.00369471 0)
(0.0305297 0.0069542 0)
(0.0287799 0.0096618 0)
(0.0251532 0.00103421 0)
(0.0281693 0.00306351 0)
(0.0279484 0.00560144 0)
(0.0265717 0.00780348 0)
(0.0233596 0.000843895 0)
(0.0260602 0.0025629 0)
(0.0258732 0.00455425 0)
(0.0247673 0.00635563 0)
(0.0218552 0.000691219 0)
(0.0243547 0.0021413 0)
(0.0241901 0.00372545 0)
(0.0232895 0.00520527 0)
(0.0205995 0.00056491 0)
(0.0229637 0.00178387 0)
(0.0228154 0.00305818 0)
(0.022076 0.00427629 0)
(0.0195557 0.000461148 0)
(0.0218233 0.00148161 0)
(0.021689 0.00251418 0)
(0.0210785 0.00351672 0)
(0.0186914 0.00037607 0)
(0.0208864 0.00122602 0)
(0.0207654 0.00206615 0)
(0.0202589 0.00288934 0)
(0.0179785 0.000306018 0)
(0.0201168 0.00100958 0)
(0.0200095 0.00169397 0)
(0.0195874 0.00236682 0)
(0.0173939 0.000247971 0)
(0.0194866 0.000825989 0)
(0.0193932 0.00138244 0)
(0.01904 0.00192865 0)
(0.0169179 0.000199546 0)
(0.0189734 0.000670023 0)
(0.0188941 0.00112 0)
(0.0185973 0.00155924 0)
(0.0165342 0.000158883 0)
(0.0185591 0.000537329 0)
(0.0184938 0.000897745 0)
(0.0182434 0.00124648 0)
(0.0162289 0.000124553 0)
(0.0182289 0.000424329 0)
(0.018177 0.000708825 0)
(0.0179651 0.000980917 0)
(0.0159904 9.54548e-05 0)
(0.0179704 0.000328027 0)
(0.0179311 0.00054789 0)
(0.0177514 0.000754998 0)
(0.015809 7.07301e-05 0)
(0.0177729 0.000245947 0)
(0.0177453 0.000410638 0)
(0.0175929 0.000562712 0)
(0.0156761 4.96997e-05 0)
(0.0176276 0.000176053 0)
(0.0176106 0.000293645 0)
(0.0174813 0.000399162 0)
(0.0155847 3.1792e-05 0)
(0.0175268 0.000116598 0)
(0.0175192 0.000194095 0)
(0.0174096 0.000260338 0)
(0.0155285 1.65183e-05 0)
(0.0174637 6.62031e-05 0)
(0.0174644 0.000109772 0)
(0.0173719 0.000142977 0)
(0.0155022 3.16301e-06 0)
(0.0174324 2.37758e-05 0)
(0.0174405 3.88763e-05 0)
(0.0173627 4.43579e-05 0)
(0.0155015 -6.0644e-06 0)
(0.0174274 -1.05245e-05 0)
(0.0174423 -1.99334e-05 0)
(0.0173776 -3.79614e-05 0)
(0.0155199 -1.54156e-05 0)
(0.0174443 -4.05402e-05 0)
(0.0174658 -6.95881e-05 0)
(0.0174126 -0.000106699 0)
(0.0155566 -2.29456e-05 0)
(0.0174802 -6.51144e-05 0)
(0.0175074 -0.000110842 0)
(0.0174642 -0.000163699 0)
(0.0156077 -2.8961e-05 0)
(0.0175314 -8.50475e-05 0)
(0.0175636 -0.000144247 0)
(0.017529 -0.000209762 0)
(0.0156703 -3.37246e-05 0)
(0.0175947 -0.00010092 0)
(0.0176314 -0.00017083 0)
(0.0176043 -0.000246344 0)
(0.0157419 -3.74112e-05 0)
(0.0176678 -0.000113289 0)
(0.0177083 -0.000191538 0)
(0.0176878 -0.000274745 0)
(0.0158204 -4.01742e-05 0)
(0.0177483 -0.000122646 0)
(0.0177923 -0.000207186 0)
(0.0177774 -0.000296092 0)
(0.015904 -4.21449e-05 0)
(0.0178344 -0.000129413 0)
(0.0178814 -0.000218477 0)
(0.0178714 -0.000311369 0)
(0.0159913 -4.34382e-05 0)
(0.0179244 -0.000133957 0)
(0.017974 -0.000226025 0)
(0.0179681 -0.000321442 0)
(0.0160807 -4.41524e-05 0)
(0.0180169 -0.000136605 0)
(0.0180686 -0.000230384 0)
(0.0180663 -0.000327088 0)
(0.0161713 -4.4373e-05 0)
(0.0181105 -0.000137652 0)
(0.0181643 -0.000232059 0)
(0.018165 -0.000328986 0)
(0.0162621 -4.41809e-05 0)
(0.0182046 -0.000137347 0)
(0.0182599 -0.000231463 0)
(0.0182631 -0.000327721 0)
(0.0163521 -4.36487e-05 0)
(0.0182979 -0.000135907 0)
(0.0183547 -0.000228958 0)
(0.0183598 -0.000323831 0)
(0.0164409 -4.28349e-05 0)
(0.0183899 -0.00013354 0)
(0.0184479 -0.0002249 0)
(0.0184547 -0.000317805 0)
(0.0165279 -4.17906e-05 0)
(0.0184801 -0.000130427 0)
(0.018539 -0.000219594 0)
(0.0185472 -0.000310059 0)
(0.0166125 -4.05628e-05 0)
(0.018568 -0.000126724 0)
(0.0186276 -0.000213298 0)
(0.0186368 -0.000300953 0)
(0.0166946 -3.91955e-05 0)
(0.0186531 -0.000122563 0)
(0.0187133 -0.000206237 0)
(0.0187234 -0.000290801 0)
(0.0167737 -3.7727e-05 0)
(0.0187352 -0.000118056 0)
(0.018796 -0.000198606 0)
(0.0188066 -0.000279875 0)
(0.0168498 -3.6188e-05 0)
(0.0188142 -0.000113304 0)
(0.0188753 -0.000190572 0)
(0.0188863 -0.000268408 0)
(0.0169227 -3.46031e-05 0)
(0.0188899 -0.000108393 0)
(0.0189513 -0.000182275 0)
(0.0189625 -0.000256597 0)
(0.0169924 -3.29923e-05 0)
(0.0189622 -0.000103396 0)
(0.0190237 -0.000173837 0)
(0.0190351 -0.00024461 0)
(0.0170587 -3.13746e-05 0)
(0.019031 -9.83722e-05 0)
(0.0190927 -0.00016536 0)
(0.019104 -0.000232586 0)
(0.0171217 -2.97671e-05 0)
(0.0190964 -9.33718e-05 0)
(0.0191581 -0.000156928 0)
(0.0191694 -0.000220643 0)
(0.0171814 -2.81837e-05 0)
(0.0191584 -8.84364e-05 0)
(0.0192201 -0.00014861 0)
(0.0192312 -0.000208874 0)
(0.017238 -2.66343e-05 0)
(0.0192171 -8.35998e-05 0)
(0.0192788 -0.000140462 0)
(0.0192896 -0.000197359 0)
(0.0172914 -2.51264e-05 0)
(0.0192725 -7.88884e-05 0)
(0.0193341 -0.000132529 0)
(0.0193447 -0.000186156 0)
(0.0173417 -2.36657e-05 0)
(0.0193248 -7.43231e-05 0)
(0.0193862 -0.000124844 0)
(0.0193965 -0.000175313 0)
(0.0173891 -2.22571e-05 0)
(0.019374 -6.99201e-05 0)
(0.0194353 -0.000117434 0)
(0.0194452 -0.000164865 0)
(0.0174336 -2.09043e-05 0)
(0.0194202 -6.56908e-05 0)
(0.0194814 -0.000110318 0)
(0.0194909 -0.000154838 0)
(0.0174754 -1.961e-05 0)
(0.0194636 -6.16425e-05 0)
(0.0195246 -0.000103509 0)
(0.0195338 -0.000145249 0)
(0.0175146 -1.83758e-05 0)
(0.0195043 -5.77799e-05 0)
(0.0195651 -9.70126e-05 0)
(0.0195739 -0.000136107 0)
(0.0175514 -1.72025e-05 0)
(0.0195425 -5.4105e-05 0)
(0.0196031 -9.08323e-05 0)
(0.0196115 -0.000127416 0)
(0.0175858 -1.60893e-05 0)
(0.0195782 -5.06179e-05 0)
(0.0196386 -8.49677e-05 0)
(0.0196467 -0.000119174 0)
(0.0176179 -1.50352e-05 0)
(0.0196115 -4.73166e-05 0)
(0.0196718 -7.94156e-05 0)
(0.0196795 -0.000111374 0)
(0.017648 -1.4039e-05 0)
(0.0196427 -4.41978e-05 0)
(0.0197028 -7.4171e-05 0)
(0.0197101 -0.000104008 0)
(0.017676 -1.30994e-05 0)
(0.0196718 -4.12562e-05 0)
(0.0197318 -6.92259e-05 0)
(0.0197387 -9.70638e-05 0)
(0.0177022 -1.22147e-05 0)
(0.019699 -3.84865e-05 0)
(0.0197588 -6.45719e-05 0)
(0.0197653 -9.05291e-05 0)
(0.0177266 -1.13837e-05 0)
(0.0197244 -3.5883e-05 0)
(0.0197839 -6.01992e-05 0)
(0.0197902 -8.43895e-05 0)
(0.0177493 -1.06046e-05 0)
(0.019748 -3.34391e-05 0)
(0.0198074 -5.6096e-05 0)
(0.0198133 -7.86293e-05 0)
(0.0177705 -9.87496e-06 0)
(0.01977 -3.11483e-05 0)
(0.0198292 -5.22511e-05 0)
(0.0198349 -7.32335e-05 0)
(0.0177902 -9.19192e-06 0)
(0.0197905 -2.90038e-05 0)
(0.0198496 -4.86526e-05 0)
(0.0198549 -6.81849e-05 0)
(0.0178086 -8.55332e-06 0)
(0.0198096 -2.69991e-05 0)
(0.0198685 -4.52888e-05 0)
(0.0198736 -6.34663e-05 0)
(0.0178257 -7.95657e-06 0)
(0.0198273 -2.51271e-05 0)
(0.0198861 -4.21477e-05 0)
(0.0198909 -5.9061e-05 0)
(0.0178416 -7.39962e-06 0)
(0.0198439 -2.33812e-05 0)
(0.0199025 -3.92177e-05 0)
(0.0199071 -5.49525e-05 0)
(0.0178564 -6.88071e-06 0)
(0.0198592 -2.1754e-05 0)
(0.0199178 -3.64871e-05 0)
(0.0199221 -5.11249e-05 0)
(0.0178702 -6.39807e-06 0)
(0.0198735 -2.02393e-05 0)
(0.019932 -3.3945e-05 0)
(0.0199361 -4.75626e-05 0)
(0.017883 -5.94889e-06 0)
(0.0198869 -1.88306e-05 0)
(0.0199452 -3.15815e-05 0)
(0.0199491 -4.42501e-05 0)
(0.0178949 -5.53196e-06 0)
(0.0198993 -1.75214e-05 0)
(0.0199575 -2.93855e-05 0)
(0.0199611 -4.11732e-05 0)
(0.017906 -5.14505e-06 0)
(0.0199108 -1.63061e-05 0)
(0.0199689 -2.73474e-05 0)
(0.0199724 -3.8318e-05 0)
(0.0179163 -4.78625e-06 0)
(0.0199215 -1.5179e-05 0)
(0.0199796 -2.54578e-05 0)
(0.0199829 -3.5671e-05 0)
(0.0179259 -4.45395e-06 0)
(0.0199315 -1.41354e-05 0)
(0.0199895 -2.37078e-05 0)
(0.0199926 -3.32197e-05 0)
(0.0179349 -4.14628e-06 0)
(0.0199408 -1.31697e-05 0)
(0.0199987 -2.20895e-05 0)
(0.0200017 -3.09525e-05 0)
(0.0179432 -3.86204e-06 0)
(0.0199495 -1.22776e-05 0)
(0.0200073 -2.05943e-05 0)
(0.0200101 -2.88577e-05 0)
(0.017951 -3.59953e-06 0)
(0.0199576 -1.14544e-05 0)
(0.0200153 -1.92148e-05 0)
(0.020018 -2.69253e-05 0)
(0.0179582 -3.35772e-06 0)
(0.0199652 -1.06961e-05 0)
(0.0200228 -1.7944e-05 0)
(0.0200254 -2.5145e-05 0)
(0.017965 -3.13557e-06 0)
(0.0199722 -9.99855e-06 0)
(0.0200298 -1.67751e-05 0)
(0.0200323 -2.35083e-05 0)
(0.0179713 -2.932e-06 0)
(0.0199789 -9.35824e-06 0)
(0.0200364 -1.57022e-05 0)
(0.0200387 -2.20062e-05 0)
(0.0179772 -2.7451e-06 0)
(0.0199851 -8.7718e-06 0)
(0.0200425 -1.47201e-05 0)
(0.0200447 -2.06309e-05 0)
(0.0179828 -2.5743e-06 0)
(0.0199909 -8.23588e-06 0)
(0.0200483 -1.38229e-05 0)
(0.0200504 -1.93752e-05 0)
(0.017988 -2.41874e-06 0)
(0.0199963 -7.74794e-06 0)
(0.0200537 -1.30061e-05 0)
(0.0200557 -1.82322e-05 0)
(0.017993 -2.2775e-06 0)
(0.0200015 -7.30532e-06 0)
(0.0200588 -1.22653e-05 0)
(0.0200607 -1.71957e-05 0)
(0.0179976 -2.14962e-06 0)
(0.0200064 -6.9056e-06 0)
(0.0200636 -1.15967e-05 0)
(0.0200654 -1.626e-05 0)
(0.018002 -2.03421e-06 0)
(0.020011 -6.54652e-06 0)
(0.0200681 -1.09966e-05 0)
(0.0200699 -1.54198e-05 0)
(0.0180062 -1.93126e-06 0)
(0.0200153 -6.22629e-06 0)
(0.0200725 -1.04614e-05 0)
(0.0200742 -1.46708e-05 0)
(0.0180101 -1.8405e-06 0)
(0.0200195 -5.94355e-06 0)
(0.0200766 -9.98807e-06 0)
(0.0200782 -1.40084e-05 0)
(0.0180139 -1.76094e-06 0)
(0.0200235 -5.69586e-06 0)
(0.0200806 -9.5739e-06 0)
(0.0200821 -1.34296e-05 0)
(0.0180176 -1.69171e-06 0)
(0.0200274 -5.48185e-06 0)
(0.0200844 -9.21703e-06 0)
(0.0200858 -1.29313e-05 0)
(0.0180211 -1.63283e-06 0)
(0.0200311 -5.30086e-06 0)
(0.020088 -8.91547e-06 0)
(0.0200894 -1.25104e-05 0)
(0.0180245 -1.58358e-06 0)
(0.0200347 -5.1516e-06 0)
(0.0200916 -8.66783e-06 0)
(0.0200929 -1.21648e-05 0)
(0.0180278 -1.54433e-06 0)
(0.0200382 -5.03415e-06 0)
(0.0200951 -8.47277e-06 0)
(0.0200963 -1.18922e-05 0)
(0.018031 -1.51506e-06 0)
(0.0200416 -4.94733e-06 0)
(0.0200985 -8.32864e-06 0)
(0.0200997 -1.16912e-05 0)
(0.0180342 -1.49527e-06 0)
(0.020045 -4.89035e-06 0)
(0.0201018 -8.23487e-06 0)
(0.020103 -1.15615e-05 0)
(0.0180374 -1.48408e-06 0)
(0.0200484 -4.86269e-06 0)
(0.0201052 -8.19139e-06 0)
(0.0201062 -1.15023e-05 0)
(0.0180405 -1.48186e-06 0)
(0.0200517 -4.86489e-06 0)
(0.0201085 -8.19838e-06 0)
(0.0201095 -1.15134e-05 0)
(0.0180437 -1.48854e-06 0)
(0.0200551 -4.89733e-06 0)
(0.0201118 -8.25618e-06 0)
(0.0201128 -1.15943e-05 0)
(0.0180469 -1.50504e-06 0)
(0.0200585 -4.96024e-06 0)
(0.0201152 -8.36418e-06 0)
(0.0201161 -1.17456e-05 0)
(0.0180502 -1.53174e-06 0)
(0.020062 -5.05383e-06 0)
(0.0201186 -8.52296e-06 0)
(0.0201194 -1.19691e-05 0)
(0.0180535 -1.56792e-06 0)
(0.0200655 -5.17809e-06 0)
(0.0201221 -8.73364e-06 0)
(0.0201229 -1.22663e-05 0)
(0.0180569 -1.6131e-06 0)
(0.0200692 -5.33378e-06 0)
(0.0201257 -8.99867e-06 0)
(0.0201264 -1.26395e-05 0)
(0.0180604 -1.66816e-06 0)
(0.020073 -5.52289e-06 0)
(0.0201294 -9.31977e-06 0)
(0.0201301 -1.30906e-05 0)
(0.018064 -1.73359e-06 0)
(0.0200769 -5.74661e-06 0)
(0.0201333 -9.69909e-06 0)
(0.0201338 -1.36224e-05 0)
(0.0180679 -1.81087e-06 0)
(0.0200809 -6.00654e-06 0)
(0.0201373 -1.01385e-05 0)
(0.0201378 -1.42388e-05 0)
(0.0180718 -1.90021e-06 0)
(0.0200852 -6.30384e-06 0)
(0.0201416 -1.06399e-05 0)
(0.0201419 -1.49429e-05 0)
(0.018076 -2.00174e-06 0)
(0.0200897 -6.6402e-06 0)
(0.020146 -1.12072e-05 0)
(0.0201463 -1.57406e-05 0)
(0.0180805 -2.11502e-06 0)
(0.0200944 -7.01708e-06 0)
(0.0201507 -1.18445e-05 0)
(0.0201509 -1.66362e-05 0)
(0.0180851 -2.24098e-06 0)
(0.0200995 -7.43805e-06 0)
(0.0201556 -1.25564e-05 0)
(0.0201557 -1.76357e-05 0)
(0.0180901 -2.38086e-06 0)
(0.0201048 -7.90584e-06 0)
(0.0201609 -1.3347e-05 0)
(0.0201609 -1.87449e-05 0)
(0.0180954 -2.53607e-06 0)
(0.0201105 -8.42367e-06 0)
(0.0201665 -1.42216e-05 0)
(0.0201664 -1.99712e-05 0)
(0.018101 -2.70835e-06 0)
(0.0201165 -8.99525e-06 0)
(0.0201725 -1.51849e-05 0)
(0.0201723 -2.13221e-05 0)
(0.018107 -2.89809e-06 0)
(0.020123 -9.62273e-06 0)
(0.0201788 -1.62428e-05 0)
(0.0201785 -2.28065e-05 0)
(0.0181135 -3.10626e-06 0)
(0.0201299 -1.03103e-05 0)
(0.0201857 -1.74021e-05 0)
(0.0201852 -2.4434e-05 0)
(0.0181204 -3.33362e-06 0)
(0.0201373 -1.10626e-05 0)
(0.020193 -1.86711e-05 0)
(0.0201924 -2.62154e-05 0)
(0.0181278 -3.58211e-06 0)
(0.0201453 -1.18849e-05 0)
(0.0202008 -2.00584e-05 0)
(0.0202001 -2.8162e-05 0)
(0.0181358 -3.8533e-06 0)
(0.0201538 -1.27825e-05 0)
(0.0202093 -2.15727e-05 0)
(0.0202084 -3.02861e-05 0)
(0.0181444 -4.14958e-06 0)
(0.0201631 -1.37613e-05 0)
(0.0202184 -2.32228e-05 0)
(0.0202173 -3.26009e-05 0)
(0.0181537 -4.47275e-06 0)
(0.020173 -1.48272e-05 0)
(0.0202282 -2.50195e-05 0)
(0.0202269 -3.51222e-05 0)
(0.0181637 -4.82462e-06 0)
(0.0201837 -1.5987e-05 0)
(0.0202387 -2.69748e-05 0)
(0.0202373 -3.78658e-05 0)
(0.0181744 -5.20681e-06 0)
(0.0201952 -1.72482e-05 0)
(0.0202501 -2.91019e-05 0)
(0.0202484 -4.08502e-05 0)
(0.018186 -5.62177e-06 0)
(0.0202076 -1.86194e-05 0)
(0.0202623 -3.14149e-05 0)
(0.0202604 -4.40943e-05 0)
(0.0181986 -6.07262e-06 0)
(0.0202211 -2.01099e-05 0)
(0.0202756 -3.39288e-05 0)
(0.0202734 -4.76192e-05 0)
(0.0182121 -6.56316e-06 0)
(0.0202356 -2.17298e-05 0)
(0.0202899 -3.66595e-05 0)
(0.0202875 -5.14477e-05 0)
(0.0182268 -7.0968e-06 0)
(0.0202512 -2.34895e-05 0)
(0.0203054 -3.96249e-05 0)
(0.0203026 -5.56052e-05 0)
(0.0182426 -7.67702e-06 0)
(0.0202682 -2.54001e-05 0)
(0.0203221 -4.28441e-05 0)
(0.020319 -6.01196e-05 0)
(0.0182597 -8.30714e-06 0)
(0.0202865 -2.7474e-05 0)
(0.0203401 -4.63389e-05 0)
(0.0203368 -6.50211e-05 0)
(0.0182783 -8.99087e-06 0)
(0.0203063 -2.97253e-05 0)
(0.0203597 -5.01334e-05 0)
(0.0203559 -7.03425e-05 0)
(0.0182983 -9.73312e-06 0)
(0.0203278 -3.21696e-05 0)
(0.0203808 -5.42537e-05 0)
(0.0203766 -7.61199e-05 0)
(0.01832 -1.0539e-05 0)
(0.020351 -3.48242e-05 0)
(0.0204037 -5.87275e-05 0)
(0.0203991 -8.23914e-05 0)
(0.0183436 -1.14146e-05 0)
(0.0203761 -3.7707e-05 0)
(0.0204285 -6.35849e-05 0)
(0.0204234 -8.91998e-05 0)
(0.018369 -1.2366e-05 0)
(0.0204033 -4.08372e-05 0)
(0.0204553 -6.88592e-05 0)
(0.0204497 -9.65921e-05 0)
(0.0183966 -1.33995e-05 0)
(0.0204327 -4.42367e-05 0)
(0.0204843 -7.45866e-05 0)
(0.0204781 -0.000104619 0)
(0.0184265 -1.45226e-05 0)
(0.0204647 -4.79293e-05 0)
(0.0205157 -8.08075e-05 0)
(0.0205089 -0.000113337 0)
(0.0184589 -1.57429e-05 0)
(0.0204992 -5.19415e-05 0)
(0.0205498 -8.75664e-05 0)
(0.0205423 -0.000122806 0)
(0.0184939 -1.707e-05 0)
(0.0205367 -5.6302e-05 0)
(0.0205867 -9.49107e-05 0)
(0.0205785 -0.000133095 0)
(0.018532 -1.8513e-05 0)
(0.0205773 -6.10418e-05 0)
(0.0206267 -0.000102893 0)
(0.0206177 -0.000144276 0)
(0.0185733 -2.0083e-05 0)
(0.0206213 -6.61962e-05 0)
(0.0206701 -0.000111572 0)
(0.0206602 -0.000156431 0)
(0.018618 -2.17915e-05 0)
(0.020669 -7.18026e-05 0)
(0.0207171 -0.00012101 0)
(0.0207062 -0.000169649 0)
(0.0186666 -2.3652e-05 0)
(0.0207208 -7.79035e-05 0)
(0.0207681 -0.00013128 0)
(0.0207562 -0.000184027 0)
(0.0187193 -2.56786e-05 0)
(0.0207769 -8.4545e-05 0)
(0.0208234 -0.000142457 0)
(0.0208103 -0.000199674 0)
(0.0187765 -2.78868e-05 0)
(0.0208379 -9.17779e-05 0)
(0.0208834 -0.000154627 0)
(0.0208691 -0.000216708 0)
(0.0188386 -3.02937e-05 0)
(0.020904 -9.96588e-05 0)
(0.0209485 -0.000167886 0)
(0.0209328 -0.000235263 0)
(0.0189061 -3.29188e-05 0)
(0.0209758 -0.000108251 0)
(0.0210192 -0.000182339 0)
(0.021002 -0.000255483 0)
(0.0189794 -3.57835e-05 0)
(0.0210538 -0.000117625 0)
(0.0210959 -0.000198102 0)
(0.0210771 -0.00027753 0)
(0.0190591 -3.89131e-05 0)
(0.0211386 -0.000127859 0)
(0.0211793 -0.000215305 0)
(0.0211587 -0.000301584 0)
(0.0191458 -4.23351e-05 0)
(0.0212307 -0.000139039 0)
(0.0212699 -0.000234092 0)
(0.0212473 -0.000327844 0)
(0.01924 -4.60797e-05 0)
(0.0213308 -0.000151261 0)
(0.0213684 -0.000254622 0)
(0.0213435 -0.000356534 0)
(0.0193426 -5.01804e-05 0)
(0.0214398 -0.000164633 0)
(0.0214755 -0.000277076 0)
(0.0214482 -0.000387903 0)
(0.0194543 -5.46752e-05 0)
(0.0215583 -0.000179277 0)
(0.021592 -0.000301656 0)
(0.021562 -0.00042223 0)
(0.019576 -5.96062e-05 0)
(0.0216874 -0.000195328 0)
(0.0217188 -0.000328588 0)
(0.0216858 -0.000459829 0)
(0.0197087 -6.50218e-05 0)
(0.021828 -0.000212942 0)
(0.0218569 -0.000358127 0)
(0.0218206 -0.000501051 0)
(0.0198534 -7.0978e-05 0)
(0.0219812 -0.000232294 0)
(0.0220073 -0.000390564 0)
(0.0219674 -0.000546295 0)
(0.0200114 -7.7538e-05 0)
(0.0221483 -0.000253582 0)
(0.0221713 -0.000426224 0)
(0.0221273 -0.00059601 0)
(0.0201839 -8.47733e-05 0)
(0.0223307 -0.000277029 0)
(0.0223503 -0.00046548 0)
(0.0223017 -0.000650706 0)
(0.0203725 -9.27655e-05 0)
(0.02253 -0.000302894 0)
(0.0225456 -0.000508754 0)
(0.0224919 -0.000710963 0)
(0.0205789 -0.000101609 0)
(0.0227477 -0.000331468 0)
(0.0227589 -0.00055653 0)
(0.0226995 -0.000777445 0)
(0.0208049 -0.000111412 0)
(0.0229859 -0.000363092 0)
(0.0229922 -0.000609362 0)
(0.0229263 -0.00085091 0)
(0.0210527 -0.0001223 0)
(0.0232468 -0.000398154 0)
(0.0232474 -0.000667891 0)
(0.0231743 -0.000932232 0)
(0.0213247 -0.000134421 0)
(0.0235327 -0.000437107 0)
(0.023527 -0.000732857 0)
(0.0234457 -0.00102242 0)
(0.0216237 -0.000147946 0)
(0.0238464 -0.000480478 0)
(0.0238336 -0.000805121 0)
(0.023743 -0.00112264 0)
(0.0219526 -0.000163075 0)
(0.0241912 -0.000528882 0)
(0.0241702 -0.000885686 0)
(0.0240689 -0.00123426 0)
(0.0223152 -0.000180047 0)
(0.0245705 -0.000583045 0)
(0.0245401 -0.000975728 0)
(0.0244267 -0.00135886 0)
(0.0227154 -0.000199143 0)
(0.0249884 -0.000643817 0)
(0.0249471 -0.00107663 0)
(0.0248198 -0.00149832 0)
(0.023158 -0.000220699 0)
(0.0254496 -0.000712215 0)
(0.0253959 -0.00119004 0)
(0.0252525 -0.00165484 0)
(0.0236485 -0.000245118 0)
(0.0259594 -0.000789449 0)
(0.0258912 -0.00131791 0)
(0.0257293 -0.00183105 0)
(0.0241931 -0.000272889 0)
(0.0265241 -0.000876976 0)
(0.0264391 -0.00146258 0)
(0.0262556 -0.00203006 0)
(0.0247992 -0.000304605 0)
(0.027151 -0.000976556 0)
(0.0270462 -0.00162688 0)
(0.0268374 -0.00225564 0)
(0.0254757 -0.000340992 0)
(0.0278484 -0.00109033 0)
(0.0277203 -0.00181423 0)
(0.0274818 -0.00251234 0)
(0.0262327 -0.000382947 0)
(0.0286263 -0.00122094 0)
(0.0284707 -0.00202884 0)
(0.0281969 -0.00280569 0)
(0.0270827 -0.000431583 0)
(0.0294965 -0.00137165 0)
(0.029308 -0.00227585 0)
(0.0289922 -0.00314248 0)
(0.0280403 -0.000488298 0)
(0.030473 -0.00154652 0)
(0.0302449 -0.00256168 0)
(0.0298787 -0.00353109 0)
(0.0291235 -0.00055487 0)
(0.0315726 -0.00175069 0)
(0.0312966 -0.00289439 0)
(0.0308694 -0.00398197 0)
(0.0303539 -0.00063357 0)
(0.0328156 -0.00199064 0)
(0.0324812 -0.00328418 0)
(0.0319795 -0.00450825 0)
(0.0317585 -0.000727339 0)
(0.0342268 -0.00227477 0)
(0.0338204 -0.00374406 0)
(0.0332269 -0.0051266 0)
(0.0333705 -0.000840009 0)
(0.0358368 -0.00261394 0)
(0.0353408 -0.00429091 0)
(0.0346331 -0.00585839 0)
(0.0352317 -0.000976728 0)
(0.0376835 -0.00302257 0)
(0.0370747 -0.00494679 0)
(0.0362235 -0.00673129 0)
(0.0373954 -0.00114417 0)
(0.0398147 -0.00351962 0)
(0.0390624 -0.00574095 0)
(0.0380284 -0.00778162 0)
(0.0399305 -0.00135214 0)
(0.0422913 -0.00413162 0)
(0.0413537 -0.00671282 0)
(0.040084 -0.00905753 0)
(0.0429256 -0.00161248 0)
(0.0451921 -0.00489323 0)
(0.0440115 -0.00791611 0)
(0.0424334 -0.0106238 0)
(0.0465022 -0.00194543 0)
(0.0486198 -0.00585685 0)
(0.0471154 -0.00942566 0)
(0.045128 -0.0125689 0)
(0.0508144 -0.00237456 0)
(0.0527123 -0.00709182 0)
(0.0507685 -0.011347 0)
(0.0482279 -0.0150148 0)
(0.056105 -0.0029394 0)
(0.057656 -0.00870356 0)
(0.0551006 -0.0138322 0)
(0.051801 -0.0181341 0)
(0.0626102 -0.00370201 0)
(0.0637062 -0.010857 0)
(0.0602969 -0.0171049 0)
(0.0559263 -0.0221702 0)
(0.0710216 -0.0047288 0)
(0.071239 -0.0137497 0)
(0.0665502 -0.0214987 0)
(0.0606671 -0.0274899 0)
(0.0811094 -0.00618562 0)
(0.0807091 -0.0178483 0)
(0.0743277 -0.0275282 0)
(0.0661434 -0.034597 0)
(0.0965208 -0.00828918 0)
(0.0932009 -0.0234472 0)
(0.0836209 -0.0359728 0)
(0.0721527 -0.0444208 0)
(0.110317 -0.0107586 0)
(0.108264 -0.0314143 0)
(0.096689 -0.0480696 0)
(0.0797006 -0.057932 0)
(0.146107 -0.0163705 0)
(0.133945 -0.0445626 0)
(0.110984 -0.0661196 0)
(0.0847031 -0.0785243 0)
(0.157391 -0.0172584 0)
(0.151291 -0.0528509 0)
(0.134778 -0.0880192 0)
(0.104298 -0.106321 0)
(0.24588 -0.0340135 0)
(0.225037 -0.0981858 0)
(0.17611 -0.14845 0)
(0.101518 -0.168169 0)
(0.0083688 -0.0138304 0)
(0.0225279 -0.0171053 0)
(0.0412107 -0.0110388 0)
(0.0639447 0.00743066 0)
(0.0755348 0.0267132 0)
(0.0747927 0.0386225 0)
(0.0684509 0.0434166 0)
(0.0595683 0.0416741 0)
(0.0507223 0.03615 0)
(0.0435801 0.0308875 0)
(0.0380563 0.0266272 0)
(0.0338826 0.0224751 0)
(0.0308044 0.018332 0)
(0.0283887 0.0147144 0)
(0.0263723 0.0118396 0)
(0.0246807 0.00960155 0)
(0.0232683 0.00783746 0)
(0.0220886 0.00642603 0)
(0.0211036 0.00528257 0)
(0.020283 0.00434586 0)
(0.0196019 0.00357105 0)
(0.0190402 0.00292481 0)
(0.0185811 0.00238201 0)
(0.0182102 0.00192353 0)
(0.0179156 0.00153461 0)
(0.0176867 0.00120378 0)
(0.0175146 0.000921877 0)
(0.0173913 0.000681619 0)
(0.0173099 0.000477037 0)
(0.0172643 0.000303275 0)
(0.0172491 0.000156286 0)
(0.0172597 3.26382e-05 0)
(0.0172918 -7.07749e-05 0)
(0.017342 -0.000156812 0)
(0.0174066 -0.000227591 0)
(0.0174828 -0.00028486 0)
(0.017568 -0.00033018 0)
(0.0176601 -0.000365139 0)
(0.0177572 -0.000391178 0)
(0.0178575 -0.000409544 0)
(0.0179597 -0.000421348 0)
(0.0180626 -0.00042757 0)
(0.0181652 -0.000429061 0)
(0.0182665 -0.00042658 0)
(0.0183659 -0.000420822 0)
(0.018463 -0.0004124 0)
(0.0185572 -0.000401843 0)
(0.0186482 -0.000389609 0)
(0.0187358 -0.000376094 0)
(0.0188197 -0.00036164 0)
(0.0189 -0.000346541 0)
(0.0189764 -0.000331046 0)
(0.0190491 -0.000315366 0)
(0.019118 -0.000299678 0)
(0.0191832 -0.000284127 0)
(0.0192448 -0.000268831 0)
(0.0193028 -0.000253887 0)
(0.0193575 -0.000239369 0)
(0.0194089 -0.000225336 0)
(0.0194571 -0.000211828 0)
(0.0195023 -0.000198877 0)
(0.0195447 -0.000186499 0)
(0.0195843 -0.000174707 0)
(0.0196214 -0.000163503 0)
(0.019656 -0.000152883 0)
(0.0196883 -0.000142841 0)
(0.0197184 -0.000133363 0)
(0.0197465 -0.000124435 0)
(0.0197727 -0.000116037 0)
(0.0197971 -0.00010815 0)
(0.0198198 -0.000100753 0)
(0.0198409 -9.38252e-05 0)
(0.0198606 -8.7344e-05 0)
(0.0198789 -8.12877e-05 0)
(0.0198959 -7.5635e-05 0)
(0.0199117 -7.03654e-05 0)
(0.0199264 -6.54578e-05 0)
(0.0199401 -6.08909e-05 0)
(0.0199528 -5.66454e-05 0)
(0.0199646 -5.27019e-05 0)
(0.0199756 -4.90434e-05 0)
(0.0199858 -4.56525e-05 0)
(0.0199953 -4.25127e-05 0)
(0.0200042 -3.96085e-05 0)
(0.0200125 -3.69263e-05 0)
(0.0200202 -3.4452e-05 0)
(0.0200274 -3.21734e-05 0)
(0.0200341 -3.00784e-05 0)
(0.0200404 -2.81559e-05 0)
(0.0200462 -2.63956e-05 0)
(0.0200518 -2.47888e-05 0)
(0.0200569 -2.33262e-05 0)
(0.0200618 -2.2e-05 0)
(0.0200664 -2.08029e-05 0)
(0.0200708 -1.97282e-05 0)
(0.020075 -1.877e-05 0)
(0.0200789 -1.79234e-05 0)
(0.0200827 -1.71839e-05 0)
(0.0200863 -1.65468e-05 0)
(0.0200899 -1.60086e-05 0)
(0.0200933 -1.55666e-05 0)
(0.0200966 -1.52184e-05 0)
(0.0200998 -1.49624e-05 0)
(0.020103 -1.47972e-05 0)
(0.0201062 -1.47221e-05 0)
(0.0201094 -1.47363e-05 0)
(0.0201126 -1.48404e-05 0)
(0.0201158 -1.50353e-05 0)
(0.0201191 -1.53227e-05 0)
(0.0201225 -1.57044e-05 0)
(0.0201259 -1.61827e-05 0)
(0.0201295 -1.67608e-05 0)
(0.0201332 -1.74425e-05 0)
(0.020137 -1.8232e-05 0)
(0.020141 -1.91346e-05 0)
(0.0201453 -2.01561e-05 0)
(0.0201498 -2.13031e-05 0)
(0.0201545 -2.25827e-05 0)
(0.0201595 -2.4003e-05 0)
(0.0201649 -2.55732e-05 0)
(0.0201706 -2.73036e-05 0)
(0.0201767 -2.92045e-05 0)
(0.0201832 -3.12884e-05 0)
(0.0201902 -3.35693e-05 0)
(0.0201977 -3.6061e-05 0)
(0.0202058 -3.878e-05 0)
(0.0202145 -4.17438e-05 0)
(0.0202239 -4.49714e-05 0)
(0.0202339 -4.84834e-05 0)
(0.0202448 -5.23028e-05 0)
(0.0202565 -5.64548e-05 0)
(0.0202692 -6.09661e-05 0)
(0.0202829 -6.5866e-05 0)
(0.0202977 -7.1187e-05 0)
(0.0203136 -7.69644e-05 0)
(0.0203309 -8.32364e-05 0)
(0.0203496 -9.00453e-05 0)
(0.0203697 -9.74363e-05 0)
(0.0203916 -0.000105459 0)
(0.0204152 -0.000114169 0)
(0.0204408 -0.000123624 0)
(0.0204685 -0.00013389 0)
(0.0204986 -0.000145039 0)
(0.0205311 -0.000157148 0)
(0.0205663 -0.000170302 0)
(0.0206044 -0.000184596 0)
(0.0206457 -0.000200133 0)
(0.0206905 -0.000217025 0)
(0.0207391 -0.000235397 0)
(0.0207917 -0.000255387 0)
(0.0208488 -0.000277145 0)
(0.0209108 -0.00030084 0)
(0.020978 -0.000326655 0)
(0.0210509 -0.000354796 0)
(0.0211301 -0.00038549 0)
(0.021216 -0.000418991 0)
(0.0213094 -0.000455579 0)
(0.0214109 -0.000495569 0)
(0.0215212 -0.000539314 0)
(0.0216411 -0.000587207 0)
(0.0217715 -0.000639692 0)
(0.0219135 -0.000697268 0)
(0.0220681 -0.0007605 0)
(0.0222365 -0.000830026 0)
(0.02242 -0.000906572 0)
(0.0226202 -0.000990965 0)
(0.0228386 -0.00108415 0)
(0.0230772 -0.00118722 0)
(0.0233379 -0.00130141 0)
(0.0236231 -0.00142818 0)
(0.0239353 -0.00156921 0)
(0.0242773 -0.00172644 0)
(0.0246526 -0.00190217 0)
(0.0250646 -0.00209911 0)
(0.0255175 -0.00232043 0)
(0.0260161 -0.00256994 0)
(0.0265656 -0.00285216 0)
(0.0271721 -0.00317256 0)
(0.0278425 -0.00353773 0)
(0.0285847 -0.00395572 0)
(0.0294078 -0.00443639 0)
(0.0303221 -0.00499196 0)
(0.0313395 -0.00563762 0)
(0.0324737 -0.00639244 0)
(0.03374 -0.00728062 0)
(0.0351561 -0.00833305 0)
(0.0367416 -0.00958962 0)
(0.0385179 -0.0111023 0)
(0.0405078 -0.0129394 0)
(0.0427337 -0.0151919 0)
(0.0452144 -0.0179818 0)
(0.0479589 -0.0214752 0)
(0.0509553 -0.0258984 0)
(0.0541499 -0.031568 0)
(0.0573997 -0.0389155 0)
(0.0604182 -0.0486004 0)
(0.062547 -0.0613877 0)
(0.0621893 -0.0792353 0)
(0.0596736 -0.10297 0)
(0.0176889 -0.144051 0)
(0.0033815 -0.030766 0)
(0.0100487 -0.0298014 0)
(0.0165406 -0.0239541 0)
(0.0264819 -0.00798649 0)
(0.038949 0.0187377 0)
(0.0441202 0.0386768 0)
(0.0438811 0.0471164 0)
(0.0417728 0.047337 0)
(0.0374781 0.04279 0)
(0.0330337 0.0366395 0)
(0.0297318 0.0308862 0)
(0.0276205 0.0254168 0)
(0.0261359 0.0205115 0)
(0.0248298 0.0165066 0)
(0.0236177 0.0133688 0)
(0.0225234 0.0109067 0)
(0.0215547 0.00894744 0)
(0.0207084 0.00736713 0)
(0.0199781 0.00607701 0)
(0.0193552 0.00501247 0)
(0.0188301 0.00412591 0)
(0.0183933 0.00338195 0)
(0.0180355 0.00275373 0)
(0.0177479 0.00222067 0)
(0.0175224 0.00176671 0)
(0.0173516 0.00137929 0)
(0.0172287 0.00104831 0)
(0.0171475 0.000765668 0)
(0.0171024 0.000524676 0)
(0.0170882 0.000319829 0)
(0.0171005 0.000146482 0)
(0.017135 6.21193e-07 0)
(0.0171882 -0.000121306 0)
(0.0172566 -0.00022236 0)
(0.0173372 -0.000305149 0)
(0.0174274 -0.000371798 0)
(0.0175247 -0.000424274 0)
(0.0176274 -0.000464433 0)
(0.0177336 -0.000493955 0)
(0.0178417 -0.000514329 0)
(0.0179506 -0.000526883 0)
(0.0180591 -0.000532788 0)
(0.0181664 -0.000533087 0)
(0.0182717 -0.000528717 0)
(0.0183744 -0.000520505 0)
(0.0184741 -0.000509172 0)
(0.0185704 -0.000495349 0)
(0.018663 -0.000479585 0)
(0.0187517 -0.000462359 0)
(0.0188365 -0.000444079 0)
(0.0189173 -0.000425096 0)
(0.0189941 -0.000405706 0)
(0.0190668 -0.000386158 0)
(0.0191356 -0.000366661 0)
(0.0192006 -0.000347384 0)
(0.0192618 -0.000328466 0)
(0.0193194 -0.000310017 0)
(0.0193736 -0.000292125 0)
(0.0194244 -0.000274854 0)
(0.019472 -0.000258253 0)
(0.0195166 -0.000242356 0)
(0.0195583 -0.000227181 0)
(0.0195972 -0.000212739 0)
(0.0196336 -0.000199028 0)
(0.0196676 -0.000186041 0)
(0.0196993 -0.000173767 0)
(0.0197288 -0.00016219 0)
(0.0197563 -0.00015129 0)
(0.0197819 -0.000141043 0)
(0.0198057 -0.000131426 0)
(0.0198279 -0.000122412 0)
(0.0198485 -0.000113975 0)
(0.0198676 -0.000106085 0)
(0.0198855 -9.87147e-05 0)
(0.019902 -9.18381e-05 0)
(0.0199174 -8.54292e-05 0)
(0.0199317 -7.9461e-05 0)
(0.019945 -7.39081e-05 0)
(0.0199574 -6.87473e-05 0)
(0.0199689 -6.39551e-05 0)
(0.0199796 -5.95102e-05 0)
(0.0199895 -5.53914e-05 0)
(0.0199987 -5.15778e-05 0)
(0.0200073 -4.80514e-05 0)
(0.0200154 -4.47952e-05 0)
(0.0200228 -4.17917e-05 0)
(0.0200298 -3.90259e-05 0)
(0.0200363 -3.64831e-05 0)
(0.0200424 -3.41502e-05 0)
(0.0200481 -3.20148e-05 0)
(0.0200535 -3.00654e-05 0)
(0.0200585 -2.82912e-05 0)
(0.0200632 -2.66824e-05 0)
(0.0200677 -2.52304e-05 0)
(0.0200719 -2.39273e-05 0)
(0.0200759 -2.27656e-05 0)
(0.0200798 -2.17393e-05 0)
(0.0200834 -2.08425e-05 0)
(0.020087 -2.00702e-05 0)
(0.0200904 -1.94181e-05 0)
(0.0200937 -1.88824e-05 0)
(0.0200969 -1.84607e-05 0)
(0.0201 -1.8151e-05 0)
(0.0201031 -1.7951e-05 0)
(0.0201062 -1.78601e-05 0)
(0.0201093 -1.78777e-05 0)
(0.0201124 -1.80046e-05 0)
(0.0201155 -1.82415e-05 0)
(0.0201187 -1.85907e-05 0)
(0.0201219 -1.9054e-05 0)
(0.0201253 -1.96345e-05 0)
(0.0201287 -2.03359e-05 0)
(0.0201323 -2.11629e-05 0)
(0.020136 -2.21208e-05 0)
(0.0201399 -2.32158e-05 0)
(0.020144 -2.4455e-05 0)