/*--------------------------------*- C++ -*----------------------------------*\
  =========                 |
  \\      /  F ield         | OpenFOAM: The Open Source CFD Toolbox
   \\    /   O peration     | Website:  https://openfoam.org
    \\  /    A nd           | Version:  dev
     \\/     M anipulation  |
\*---------------------------------------------------------------------------*/
FoamFile
{
    version     2.0;
    format      ascii;
    class       surfaceScalarField;
    location    "10";
    object      phi;
}
// * * * * * * * * * * * * * * * * * * * * * * * * * * * * * * * * * * * * * //

dimensions      [1 0 -1 0 0 0 0];

internalField   nonuniform List<scalar> 
15760
(
2.92841e-06
0.00115569
-4.66093e-06
0.0011662
-2.90858e-05
0.00118303
0.00115964
-3.01235e-05
2.88998e-06
0.0011528
-5.00159e-06
0.00117409
-3.29742e-05
0.001211
0.00119499
-6.83239e-05
1.22913e-05
0.00114051
1.34079e-05
0.00117298
-6.17831e-07
0.00122503
0.00124656
-5.21863e-05
3.31262e-05
0.00110738
5.61927e-05
0.00114991
7.89831e-05
0.00120224
0.00126825
5.72903e-05
6.01633e-05
0.00104722
0.000114907
0.00109517
0.000184126
0.00113302
0.00121258
0.000239797
8.31723e-05
0.000964048
0.000166265
0.00101207
0.000269844
0.00102944
0.00109645
0.000385968
9.55582e-05
0.00086849
0.000193174
0.00091446
0.000310702
0.000911914
0.000951182
0.000455973
9.75665e-05
0.000770923
0.000196376
0.00081565
0.000308293
0.000799996
0.000806018
0.000453458
9.33375e-05
0.000677586
0.000185763
0.000723224
0.000281038
0.000704721
0.000684522
0.000402536
8.80246e-05
0.000589562
0.0001713
0.000639949
0.000250147
0.000625874
0.000592444
0.000342226
8.21643e-05
0.000507398
0.000156217
0.000565897
0.00022376
0.000558332
0.000521071
0.000295133
7.13885e-05
0.000436009
0.00013685
0.000500436
0.000197318
0.000497864
0.000462469
0.00025592
5.55413e-05
0.000380468
0.00011236
0.000443617
0.000166795
0.000443429
0.000412944
0.00021632
4.05618e-05
0.000339906
8.83647e-05
0.000395814
0.000135641
0.000396153
0.000371526
0.000177059
3.0474e-05
0.000309432
6.95599e-05
0.000356728
0.000108864
0.000356849
0.000337453
0.000142937
2.45749e-05
0.000284857
5.60735e-05
0.00032523
8.78999e-05
0.000325023
0.000309617
0.000115736
2.06981e-05
0.000264159
4.60796e-05
0.000299848
7.17346e-05
0.000299368
0.000286878
9.44733e-05
1.757e-05
0.000246589
3.81839e-05
0.000279234
5.90083e-05
0.000278543
0.000268257
7.76296e-05
1.4838e-05
0.000231751
3.17239e-05
0.000262348
4.87572e-05
0.00026151
0.000252965
6.4049e-05
1.24576e-05
0.000219293
2.63701e-05
0.000248436
4.03645e-05
0.000247516
0.000240383
5.29466e-05
1.04067e-05
0.000208886
2.18995e-05
0.000236943
3.34122e-05
0.000236003
0.000230027
4.37679e-05
8.64854e-06
0.000200238
1.81404e-05
0.000227451
2.75996e-05
0.000226544
0.000221519
3.61077e-05
7.14301e-06
0.000193095
1.49591e-05
0.000219635
2.27022e-05
0.000218801
0.000214559
2.96619e-05
5.85322e-06
0.000187242
1.22522e-05
0.000213236
1.85499e-05
0.000212503
0.000208908
2.42011e-05
4.74671e-06
0.000182495
9.93796e-06
0.000208045
1.50114e-05
0.00020743
0.000204371
1.95485e-05
3.79588e-06
0.000178699
7.95259e-06
0.000203888
1.19841e-05
0.000203398
0.000200787
1.5568e-05
2.97756e-06
0.000175721
6.24512e-06
0.000200621
9.38685e-06
0.000200256
0.000198022
1.21522e-05
2.2726e-06
0.000173449
4.77432e-06
0.000198119
7.15492e-06
0.000197876
0.000195961
9.21639e-06
1.66519e-06
0.000171784
3.50712e-06
0.000196277
5.23606e-06
0.000196147
0.000194504
6.6922e-06
1.14169e-06
0.000170642
2.41593e-06
0.000195003
3.58769e-06
0.000194975
0.000193568
4.52448e-06
6.90708e-07
0.000169951
1.47896e-06
0.000194214
2.17614e-06
0.000194278
0.000193075
2.66847e-06
2.98832e-07
0.000169652
6.79342e-07
0.000193834
9.7468e-07
0.000193983
0.000192963
1.08693e-06
-1.03391e-08
0.000169663
1.93013e-08
0.000193804
-3.71185e-08
0.000194039
0.00019318
-2.53939e-07
-2.9154e-07
0.000169954
-5.57658e-07
0.00019407
-9.02335e-07
0.000194384
0.000193669
-1.39173e-06
-5.28176e-07
0.000170482
-1.04674e-06
0.000194589
-1.63556e-06
0.000194973
0.000194384
-2.35032e-06
-7.22496e-07
0.000171205
-1.44982e-06
0.000195316
-2.24038e-06
0.000195763
0.000195285
-3.14167e-06
-8.80393e-07
0.000172085
-1.77798e-06
0.000196214
-2.73228e-06
0.000196717
0.000196337
-3.78419e-06
-1.00671e-06
0.000173092
-2.04081e-06
0.000197248
-3.12578e-06
0.000197802
0.000197508
-4.29664e-06
-1.10558e-06
0.000174198
-2.24669e-06
0.000198389
-3.4333e-06
0.000198989
0.00019877
-4.69525e-06
-1.18046e-06
0.000175378
-2.40283e-06
0.000199612
-3.66565e-06
0.000200252
0.000200099
-4.99427e-06
-1.23439e-06
0.000176612
-2.51555e-06
0.000200893
-3.83243e-06
0.000201569
0.000201473
-5.20647e-06
-1.27015e-06
0.000177883
-2.59051e-06
0.000202213
-3.94233e-06
0.000202921
0.000202874
-5.34365e-06
-1.29022e-06
0.000179173
-2.63298e-06
0.000203556
-4.00342e-06
0.000204291
0.000204287
-5.41619e-06
-1.29684e-06
0.00018047
-2.64769e-06
0.000204907
-4.02254e-06
0.000205666
0.000205697
-5.43302e-06
-1.29194e-06
0.000181761
-2.63856e-06
0.000206253
-4.00561e-06
0.000207033
0.000207094
-5.40262e-06
-1.27733e-06
0.000183039
-2.60932e-06
0.000207585
-3.9586e-06
0.000208382
0.000208469
-5.33292e-06
-1.25474e-06
0.000184294
-2.5635e-06
0.000208894
-3.88693e-06
0.000209706
0.000209812
-5.23081e-06
-1.22563e-06
0.000185519
-2.50417e-06
0.000210173
-3.79511e-06
0.000210997
0.00021112
-5.10237e-06
-1.19125e-06
0.00018671
-2.43405e-06
0.000211415
-3.6871e-06
0.00021225
0.000212386
-4.95293e-06
-1.15272e-06
0.000187863
-2.35545e-06
0.000212618
-3.56646e-06
0.000213461
0.000213606
-4.78718e-06
-1.11106e-06
0.000188974
-2.27041e-06
0.000213777
-3.43629e-06
0.000214626
0.000214779
-4.6092e-06
-1.06716e-06
0.000190041
-2.1807e-06
0.000214891
-3.29929e-06
0.000215745
0.000215902
-4.42255e-06
-1.02175e-06
0.000191063
-2.08789e-06
0.000215957
-3.15776e-06
0.000216815
0.000216975
-4.23031e-06
-9.75482e-07
0.000192039
-1.99328e-06
0.000216975
-3.01371e-06
0.000217835
0.000217996
-4.03512e-06
-9.28886e-07
0.000192967
-1.89801e-06
0.000217944
-2.86882e-06
0.000218806
0.000218967
-3.83917e-06
-8.82427e-07
0.00019385
-1.80303e-06
0.000218865
-2.7245e-06
0.000219728
0.000219887
-3.64432e-06
-8.36489e-07
0.000194686
-1.70913e-06
0.000219737
-2.58192e-06
0.0002206
0.000220757
-3.4521e-06
-7.91392e-07
0.000195478
-1.61695e-06
0.000220563
-2.44206e-06
0.000221426
0.000221578
-3.26378e-06
-7.47388e-07
0.000196225
-1.52699e-06
0.000221342
-2.30567e-06
0.000222204
0.000222353
-3.08037e-06
-7.04672e-07
0.00019693
-1.43968e-06
0.000222077
-2.17339e-06
0.000222938
0.000223082
-2.90261e-06
-6.63413e-07
0.000197593
-1.35532e-06
0.000222769
-2.04565e-06
0.000223628
0.000223768
-2.73114e-06
-6.23709e-07
0.000198217
-1.27417e-06
0.00022342
-1.92282e-06
0.000224277
0.000224411
-2.56638e-06
-5.85643e-07
0.000198802
-1.19639e-06
0.000224031
-1.80512e-06
0.000224886
0.000225015
-2.40863e-06
-5.49265e-07
0.000199352
-1.12206e-06
0.000224603
-1.6927e-06
0.000225456
0.00022558
-2.25805e-06
-5.14605e-07
0.000199866
-1.05124e-06
0.00022514
-1.58565e-06
0.000225991
0.000226109
-2.11471e-06
-4.81668e-07
0.000200348
-9.83956e-07
0.000225642
-1.48396e-06
0.000226491
0.000226604
-1.97865e-06
-4.50451e-07
0.000200798
-9.20171e-07
0.000226112
-1.38758e-06
0.000226958
0.000227066
-1.84976e-06
-4.20919e-07
0.000201219
-8.5983e-07
0.000226551
-1.29646e-06
0.000227395
0.000227498
-1.72795e-06
-3.93032e-07
0.000201612
-8.02867e-07
0.000226961
-1.21046e-06
0.000227802
0.0002279
-1.61302e-06
-3.6675e-07
0.000201979
-7.49196e-07
0.000227343
-1.12943e-06
0.000228183
0.000228276
-1.50479e-06
-3.42026e-07
0.000202321
-6.98703e-07
0.0002277
-1.05321e-06
0.000228537
0.000228625
-1.40304e-06
-3.18798e-07
0.00020264
-6.5127e-07
0.000228032
-9.81627e-07
0.000228867
0.000228951
-1.30752e-06
-2.97007e-07
0.000202937
-6.06777e-07
0.000228342
-9.14502e-07
0.000229175
0.000229255
-1.21795e-06
-2.76595e-07
0.000203213
-5.65101e-07
0.000228631
-8.51632e-07
0.000229462
0.000229537
-1.13408e-06
-2.575e-07
0.000203471
-5.26106e-07
0.000228899
-7.92813e-07
0.000229728
0.0002298
-1.05563e-06
-2.39655e-07
0.000203711
-4.89656e-07
0.000229149
-7.37849e-07
0.000229977
0.000230045
-9.82357e-07
-2.22992e-07
0.000203934
-4.55627e-07
0.000229382
-6.86553e-07
0.000230207
0.000230272
-9.13976e-07
-2.07442e-07
0.000204141
-4.23896e-07
0.000229598
-6.38723e-07
0.000230422
0.000230483
-8.50225e-07
-1.92958e-07
0.000204334
-3.94338e-07
0.0002298
-5.94168e-07
0.000230622
0.00023068
-7.90847e-07
-1.79481e-07
0.000204513
-3.66828e-07
0.000229987
-5.52698e-07
0.000230808
0.000230863
-7.35596e-07
-1.66946e-07
0.00020468
-3.41242e-07
0.000230161
-5.14139e-07
0.000230981
0.000231033
-6.84251e-07
-1.55301e-07
0.000204836
-3.17474e-07
0.000230324
-4.78333e-07
0.000231142
0.000231191
-6.36564e-07
-1.44491e-07
0.00020498
-2.9542e-07
0.000230474
-4.45108e-07
0.000231291
0.000231339
-5.92323e-07
-1.34472e-07
0.000205115
-2.74982e-07
0.000230615
-4.14311e-07
0.000231431
0.000231476
-5.51311e-07
-1.25196e-07
0.00020524
-2.56054e-07
0.000230746
-3.85791e-07
0.00023156
0.000231603
-5.13347e-07
-1.16618e-07
0.000205356
-2.38544e-07
0.000230868
-3.59415e-07
0.000231681
0.000231722
-4.78239e-07
-1.08688e-07
0.000205465
-2.22362e-07
0.000230981
-3.35055e-07
0.000231794
0.000231833
-4.45816e-07
-1.01372e-07
0.000205566
-2.07441e-07
0.000231087
-3.12579e-07
0.000231899
0.000231936
-4.15903e-07
-9.46292e-08
0.000205661
-1.93696e-07
0.000231187
-2.91883e-07
0.000231997
0.000232033
-3.88357e-07
-8.8431e-08
0.000205749
-1.81056e-07
0.000231279
-2.72848e-07
0.000232089
0.000232123
-3.63029e-07
-8.27381e-08
0.000205832
-1.69457e-07
0.000231366
-2.5538e-07
0.000232175
0.000232207
-3.39794e-07
-7.75275e-08
0.00020591
-1.58833e-07
0.000231447
-2.39395e-07
0.000232256
0.000232286
-3.18523e-07
-7.27654e-08
0.000205982
-1.49136e-07
0.000231524
-2.24796e-07
0.000232331
0.000232361
-2.99104e-07
-6.84287e-08
0.000206051
-1.4031e-07
0.000231595
-2.11504e-07
0.000232403
0.00023243
-2.81427e-07
-6.44986e-08
0.000206115
-1.323e-07
0.000231663
-1.99453e-07
0.00023247
0.000232496
-2.65402e-07
-6.09458e-08
0.000206176
-1.25063e-07
0.000231727
-1.88574e-07
0.000232533
0.000232559
-2.50938e-07
-5.77529e-08
0.000206234
-1.18574e-07
0.000231788
-1.78814e-07
0.000232593
0.000232618
-2.37956e-07
-5.49033e-08
0.000206289
-1.12787e-07
0.000231846
-1.70114e-07
0.000232651
0.000232674
-2.26386e-07
-5.23842e-08
0.000206341
-1.07672e-07
0.000231901
-1.6242e-07
0.000232705
0.000232728
-2.16157e-07
-5.01727e-08
0.000206392
-1.03204e-07
0.000231954
-1.55693e-07
0.000232758
0.000232779
-2.0722e-07
-4.82665e-08
0.00020644
-9.93482e-08
0.000232005
-1.49906e-07
0.000232809
0.000232829
-1.99522e-07
-4.66575e-08
0.000206486
-9.60898e-08
0.000232055
-1.45013e-07
0.000232857
0.000232877
-1.9303e-07
-4.53269e-08
0.000206532
-9.3417e-08
0.000232103
-1.41001e-07
0.000232905
0.000232924
-1.87695e-07
-4.42716e-08
0.000206576
-9.13058e-08
0.00023215
-1.37839e-07
0.000232952
0.000232969
-1.83493e-07
-4.34854e-08
0.000206619
-8.97506e-08
0.000232196
-1.35506e-07
0.000232997
0.000233014
-1.80405e-07
-4.29663e-08
0.000206662
-8.87393e-08
0.000232242
-1.34e-07
0.000233043
0.000233059
-1.7842e-07
-4.27136e-08
0.000206705
-8.82711e-08
0.000232288
-1.33312e-07
0.000233088
0.000233103
-1.77513e-07
-4.27244e-08
0.000206748
-8.83426e-08
0.000232333
-1.33438e-07
0.000233133
0.000233147
-1.77697e-07
-4.29989e-08
0.000206791
-8.89576e-08
0.000232379
-1.34389e-07
0.000233178
0.000233192
-1.78966e-07
-4.35365e-08
0.000206834
-9.01213e-08
0.000232426
-1.36161e-07
0.000233224
0.000233237
-1.81331e-07
-4.43407e-08
0.000206879
-9.18386e-08
0.000232473
-1.38765e-07
0.000233271
0.000233283
-1.84812e-07
-4.54248e-08
0.000206924
-9.41242e-08
0.000232522
-1.42225e-07
0.000233319
0.00023333
-1.8943e-07
-4.67854e-08
0.000206971
-9.69885e-08
0.000232572
-1.46564e-07
0.000233369
0.000233379
-1.95219e-07
-4.8448e-08
0.000207019
-1.00455e-07
0.000232624
-1.51815e-07
0.00023342
0.000233429
-2.02216e-07
-5.04071e-08
0.00020707
-1.04541e-07
0.000232678
-1.58008e-07
0.000233474
0.000233482
-2.10465e-07
-5.26766e-08
0.000207122
-1.0929e-07
0.000232735
-1.65177e-07
0.000233529
0.000233537
-2.2002e-07
-5.52762e-08
0.000207178
-1.14713e-07
0.000232794
-1.73378e-07
0.000233588
0.000233594
-2.30938e-07
-5.822e-08
0.000207236
-1.20855e-07
0.000232857
-1.82655e-07
0.00023365
0.000233655
-2.43299e-07
-6.1536e-08
0.000207297
-1.27748e-07
0.000232923
-1.93069e-07
0.000233715
0.000233719
-2.57174e-07
-6.52444e-08
0.000207363
-1.35439e-07
0.000232993
-2.04697e-07
0.000233785
0.000233787
-2.72656e-07
-6.93628e-08
0.000207432
-1.43982e-07
0.000233068
-2.17603e-07
0.000233858
0.000233859
-2.89847e-07
-7.39148e-08
0.000207506
-1.53424e-07
0.000233147
-2.31875e-07
0.000233937
0.000233936
-3.08846e-07
-7.89311e-08
0.000207585
-1.63832e-07
0.000233232
-2.47602e-07
0.00023402
0.000234018
-3.29779e-07
-8.44376e-08
0.000207669
-1.75277e-07
0.000233323
-2.6488e-07
0.00023411
0.000234106
-3.52792e-07
-9.04799e-08
0.00020776
-1.87827e-07
0.000233421
-2.83826e-07
0.000234206
0.0002342
-3.78022e-07
-9.71056e-08
0.000207857
-2.01561e-07
0.000233525
-3.04572e-07
0.000234309
0.000234301
-4.05635e-07
-1.04345e-07
0.000207961
-2.16567e-07
0.000233637
-3.27236e-07
0.00023442
0.00023441
-4.35809e-07
-1.12245e-07
0.000208073
-2.32948e-07
0.000233758
-3.51974e-07
0.000234539
0.000234527
-4.68737e-07
-1.20861e-07
0.000208194
-2.50808e-07
0.000233888
-3.7894e-07
0.000234667
0.000234652
-5.04632e-07
-1.30249e-07
0.000208324
-2.70262e-07
0.000234028
-4.08309e-07
0.000234805
0.000234788
-5.43735e-07
-1.40469e-07
0.000208465
-2.91443e-07
0.000234179
-4.40284e-07
0.000234954
0.000234934
-5.86294e-07
-1.51589e-07
0.000208616
-3.14486e-07
0.000234342
-4.75071e-07
0.000235114
0.000235091
-6.32588e-07
-1.63688e-07
0.00020878
-3.39538e-07
0.000234518
-5.12889e-07
0.000235288
0.000235261
-6.82924e-07
-1.76842e-07
0.000208957
-3.66768e-07
0.000234708
-5.53997e-07
0.000235475
0.000235445
-7.37628e-07
-1.91137e-07
0.000209148
-3.96367e-07
0.000234913
-5.98663e-07
0.000235677
0.000235643
-7.97063e-07
-2.06665e-07
0.000209355
-4.28515e-07
0.000235135
-6.47187e-07
0.000235896
0.000235858
-8.61634e-07
-2.23528e-07
0.000209578
-4.63444e-07
0.000235375
-6.99891e-07
0.000236132
0.00023609
-9.31764e-07
-2.41854e-07
0.00020982
-5.01384e-07
0.000235634
-7.57134e-07
0.000236388
0.000236341
-1.00793e-06
-2.61764e-07
0.000210082
-5.4259e-07
0.000235915
-8.1931e-07
0.000236665
0.000236612
-1.09064e-06
-2.83391e-07
0.000210365
-5.87346e-07
0.000236219
-8.86834e-07
0.000236964
0.000236906
-1.18046e-06
-3.06894e-07
0.000210672
-6.35958e-07
0.000236548
-9.60171e-07
0.000237288
0.000237223
-1.278e-06
-3.32425e-07
0.000211005
-6.88772e-07
0.000236904
-1.03983e-06
0.000237639
0.000237567
-1.38395e-06
-3.60166e-07
0.000211365
-7.46146e-07
0.00023729
-1.12636e-06
0.00023802
0.00023794
-1.49903e-06
-3.90319e-07
0.000211755
-8.085e-07
0.000237708
-1.22038e-06
0.000238432
0.000238344
-1.62405e-06
-4.23099e-07
0.000212178
-8.76271e-07
0.000238162
-1.32257e-06
0.000238878
0.000238781
-1.7599e-06
-4.58751e-07
0.000212637
-9.4994e-07
0.000238653
-1.43364e-06
0.000239362
0.000239255
-1.90756e-06
-4.97526e-07
0.000213134
-1.03006e-06
0.000239185
-1.5544e-06
0.000239886
0.000239769
-2.06807e-06
-5.39717e-07
0.000213674
-1.11722e-06
0.000239763
-1.68575e-06
0.000240454
0.000240326
-2.24263e-06
-5.85643e-07
0.00021426
-1.21206e-06
0.000240389
-1.82867e-06
0.000241071
0.000240929
-2.43253e-06
-6.35659e-07
0.000214895
-1.31531e-06
0.000241069
-1.98422e-06
0.00024174
0.000241584
-2.63918e-06
-6.90149e-07
0.000215586
-1.42776e-06
0.000241806
-2.1536e-06
0.000242466
0.000242295
-2.86415e-06
-7.49534e-07
0.000216335
-1.5503e-06
0.000242607
-2.33811e-06
0.000243254
0.000243066
-3.10919e-06
-8.14314e-07
0.000217149
-1.68389e-06
0.000243477
-2.53924e-06
0.000244109
0.000243903
-3.37621e-06
-8.85009e-07
0.000218034
-1.82962e-06
0.000244421
-2.75857e-06
0.000245038
0.000244812
-3.66734e-06
-9.62224e-07
0.000218997
-1.9887e-06
0.000245448
-2.99793e-06
0.000246047
0.000245799
-3.98495e-06
-1.04661e-06
0.000220043
-2.16246e-06
0.000246564
-3.25931e-06
0.000247144
0.000246871
-4.33168e-06
-1.1389e-06
0.000221182
-2.35241e-06
0.000247777
-3.54492e-06
0.000248336
0.000248037
-4.71045e-06
-1.23992e-06
0.000222422
-2.56021e-06
0.000249098
-3.85728e-06
0.000249634
0.000249304
-5.12453e-06
-1.3506e-06
0.000223773
-2.78776e-06
0.000250535
-4.19917e-06
0.000251045
0.000250682
-5.57758e-06
-1.47199e-06
0.000225245
-3.03715e-06
0.0002521
-4.57372e-06
0.000252582
0.000252182
-6.07372e-06
-1.60526e-06
0.00022685
-3.31076e-06
0.000253805
-4.98447e-06
0.000254255
0.000253815
-6.61759e-06
-1.75177e-06
0.000228602
-3.61131e-06
0.000255665
-5.43543e-06
0.000256079
0.000255594
-7.21438e-06
-1.91303e-06
0.000230515
-3.94184e-06
0.000257694
-5.93109e-06
0.000258069
0.000257533
-7.86999e-06
-2.09079e-06
0.000232605
-4.30582e-06
0.000259909
-6.47659e-06
0.000260239
0.000259648
-8.5911e-06
-2.28701e-06
0.000234892
-4.70722e-06
0.000262329
-7.07776e-06
0.00026261
0.000261955
-9.38531e-06
-2.50397e-06
0.000237396
-5.15055e-06
0.000264976
-7.74128e-06
0.000265201
0.000264475
-1.02613e-05
-2.74427e-06
0.000240141
-5.64102e-06
0.000267872
-8.47478e-06
0.000268034
0.000267229
-1.12289e-05
-3.01094e-06
0.000243151
-6.18463e-06
0.000271046
-9.28706e-06
0.000271137
0.000270242
-1.22995e-05
-3.30748e-06
0.000246459
-6.78832e-06
0.000274527
-1.01883e-05
0.000274537
0.00027354
-1.34864e-05
-3.63799e-06
0.000250097
-7.46018e-06
0.000278349
-1.11903e-05
0.000278267
0.000277154
-1.48046e-05
-4.00726e-06
0.000254104
-8.20964e-06
0.000282551
-1.23068e-05
0.000282364
0.000281119
-1.62719e-05
-4.42093e-06
0.000258525
-9.04775e-06
0.000287178
-1.3554e-05
0.00028687
0.000285474
-1.79089e-05
-4.88564e-06
0.000263411
-9.98758e-06
0.00029228
-1.49506e-05
0.000291833
0.000290263
-1.97396e-05
-5.40934e-06
0.00026882
-1.10446e-05
0.000297915
-1.65192e-05
0.000297308
0.000295537
-2.17928e-05
-6.0015e-06
0.000274822
-1.22372e-05
0.000304151
-1.82863e-05
0.000303357
0.000301353
-2.41021e-05
-6.67353e-06
0.000281495
-1.35876e-05
0.000311065
-2.02837e-05
0.000310053
0.000307777
-2.67077e-05
-7.43926e-06
0.000288934
-1.51224e-05
0.000318748
-2.25498e-05
0.00031748
0.000314885
-2.96579e-05
-8.31552e-06
0.00029725
-1.68742e-05
0.000327307
-2.51309e-05
0.000325737
0.000322765
-3.30108e-05
-9.32301e-06
0.000306573
-1.88826e-05
0.000336867
-2.80835e-05
0.000334938
0.000331518
-3.6837e-05
-1.04874e-05
0.00031706
-2.11967e-05
0.000347576
-3.14773e-05
0.000345219
0.000341264
-4.12225e-05
-1.18408e-05
0.000328901
-2.38775e-05
0.000359613
-3.53981e-05
0.000356739
0.000352139
-4.62735e-05
-1.34236e-05
0.000342325
-2.70017e-05
0.000373191
-3.99535e-05
0.000369691
0.000364307
-5.21216e-05
-1.52872e-05
0.000357612
-3.06665e-05
0.00038857
-4.52793e-05
0.000384304
0.000377959
-5.89314e-05
-1.74978e-05
0.00037511
-3.49964e-05
0.000406068
-5.1548e-05
0.000400855
0.000393322
-6.69107e-05
-2.01408e-05
0.00039525
-4.01527e-05
0.00042608
-5.89821e-05
0.000419685
0.000410664
-7.63243e-05
-2.33327e-05
0.000418583
-4.63478e-05
0.000449095
-6.78707e-05
0.000441208
0.000430306
-8.75129e-05
-2.72166e-05
0.0004458
-5.38623e-05
0.000475741
-7.8596e-05
0.000465941
0.000452629
-0.000100919
-3.202e-05
0.00047782
-6.30803e-05
0.000506801
-9.16664e-05
0.000494527
0.000478089
-0.000117127
-3.79829e-05
0.000515803
-7.45184e-05
0.000543337
-0.000107776
0.000527785
0.000507221
-0.000136908
-4.55786e-05
0.000561381
-8.89127e-05
0.000586671
-0.000127869
0.000566742
0.000540664
-0.000161312
-5.52823e-05
0.000616663
-0.000107298
0.000638687
-0.000153286
0.00061273
0.000579131
-0.000191753
-6.80058e-05
0.000684669
-0.00013116
0.000701841
-0.000185909
0.000667479
0.000623438
-0.000230217
-8.50215e-05
0.000769691
-0.000162785
0.000779604
-0.000228486
0.00073318
0.000674387
-0.000279434
-0.000107799
0.00087749
-0.000205272
0.000877077
-0.00028514
0.000813048
0.00073267
-0.000343422
-0.000140341
0.00101783
-0.000264267
0.001001
-0.00036183
0.000910611
0.000798469
-0.00042763
-0.000183901
0.00120173
-0.000345944
0.00116305
-0.00046916
0.00103383
0.000870942
-0.000541633
-0.000245041
0.00144677
-0.000462303
0.00138031
-0.000619575
0.0011911
0.000946895
-0.000695528
-0.000347893
0.00179467
-0.000637037
0.00166945
-0.000849636
0.0014037
0.00102455
-0.000927289
-0.000401504
0.00219617
-0.000805698
0.00207365
-0.00114479
0.00174279
0.00112124
-0.00124149
-0.000768638
-0.00140561
-0.00178646
-0.00195451
0.000193411
-0.000223534
0.000379955
-0.000254869
0.000572362
-0.000244593
0.000762442
-0.00013279
0.000875133
0.000127106
0.000878329
0.000382771
0.000813782
0.00052052
0.000716482
0.000550758
0.000613124
0.000505893
0.000526647
0.000428704
0.000459865
0.000361915
0.000407938
0.000307847
0.000367501
0.000256757
0.00033538
0.000209181
0.000309107
0.000169209
0.000287275
0.000137568
0.00026909
0.000112659
0.000253949
9.277e-05
0.000241338
7.66608e-05
0.000230834
6.34501e-05
0.000222106
5.24957e-05
0.000214889
4.33249e-05
0.000208967
3.55842e-05
0.000204161
2.9007e-05
0.000200321
2.33882e-05
0.00019732
1.85695e-05
0.000195046
1.44259e-05
0.000193404
1.08585e-05
0.000192309
7.78733e-06
0.000191686
5.14741e-06
0.000191469
2.88519e-06
0.000191601
9.55063e-07
0.000192032
-6.84388e-07
0.00019271
-2.07034e-06
0.000193591
-3.2316e-06
0.00019464
-4.18999e-06
0.000195821
-4.96593e-06
0.000197107
-5.58167e-06
0.000198468
-6.0572e-06
0.000199884
-6.41018e-06
0.000201334
-6.65654e-06
0.000202801
-6.81041e-06
0.000204269
-6.88444e-06
0.000205727
-6.89041e-06
0.000207163
-6.83902e-06
0.00020857
-6.73983e-06
0.000209941
-6.60131e-06
0.000211269
-6.43095e-06
0.000212552
-6.23534e-06
0.000213785
-6.0203e-06
0.000214966
-5.79091e-06
0.000216095
-5.55155e-06
0.000217171
-5.30596e-06
0.000218193
-5.05737e-06
0.000219163
-4.80848e-06
0.00022008
-4.56156e-06
0.000220946
-4.31845e-06
0.000221763
-4.08066e-06
0.000222532
-3.84939e-06
0.000223255
-3.62557e-06
0.000223934
-3.4099e-06
0.00022457
-3.20291e-06
0.000225167
-3.0049e-06
0.000225725
-2.81606e-06
0.000226246
-2.63648e-06
0.000226734
-2.46611e-06
0.000227189
-2.30485e-06
0.000227614
-2.15251e-06
0.000228009
-2.00887e-06
0.000228378
-1.87366e-06
0.000228722
-1.7466e-06
0.000229042
-1.62737e-06
0.000229339
-1.51561e-06
0.000229616
-1.41101e-06
0.000229874
-1.31322e-06
0.000230113
-1.2219e-06
0.000230336
-1.13669e-06
0.000230543
-1.05728e-06
0.000230736
-9.83335e-07
0.000230915
-9.14551e-07
0.000231081
-8.50631e-07
0.000231236
-7.91279e-07
0.00023138
-7.36218e-07
0.000231513
-6.85201e-07
0.000231638
-6.37978e-07
0.000231754
-5.94313e-07
0.000231862
-5.53984e-07
0.000231963
-5.16795e-07
0.000232057
-4.8254e-07
0.000232145
-4.51061e-07
0.000232228
-4.22183e-07
0.000232305
-3.95745e-07
0.000232378
-3.71611e-07
0.000232446
-3.49649e-07
0.00023251
-3.29738e-07
0.000232571
-3.11773e-07
0.000232629
-2.95641e-07
0.000232684
-2.81264e-07
0.000232736
-2.68567e-07
0.000232786
-2.57466e-07
0.000232835
-2.47914e-07
0.000232881
-2.39849e-07
0.000232927
-2.33225e-07
0.000232971
-2.28022e-07
0.000233015
-2.24192e-07
0.000233059
-2.21722e-07
0.000233102
-2.20608e-07
0.000233145
-2.20838e-07
0.000233188
-2.22419e-07
0.000233232
-2.25367e-07
0.000233277
-2.29701e-07
0.000233323
-2.35447e-07
0.000233371
-2.42649e-07
0.00023342
-2.51344e-07
0.000233471
-2.616e-07
0.000233524
-2.73477e-07
0.00023358
-2.87055e-07
0.00023364
-3.02414e-07
0.000233702
-3.19662e-07
0.000233768
-3.389e-07
0.000233839
-3.60258e-07
0.000233914
-3.83874e-07
0.000233994
-4.0989e-07
0.000234079
-4.38476e-07
0.000234171
-4.69827e-07
0.00023427
-5.0414e-07
0.000234376
-5.41627e-07
0.000234489
-5.82542e-07
0.000234612
-6.27135e-07
0.000234744
-6.75709e-07
0.000234886
-7.28576e-07
0.00023504
-7.86079e-07
0.000235205
-8.48596e-07
0.000235384
-9.16536e-07
0.000235577
-9.90351e-07
0.000235786
-1.07053e-06
0.000236012
-1.15762e-06
0.000236257
-1.25218e-06
0.000236521
-1.35488e-06
0.000236807
-1.46638e-06
0.000237116
-1.58746e-06
0.000237451
-1.71896e-06
0.000237814
-1.86177e-06
0.000238207
-2.01691e-06
0.000238632
-2.18547e-06
0.000239093
-2.36863e-06
0.000239593
-2.56773e-06
0.000240135
-2.78421e-06
0.000240722
-3.01966e-06
0.000241358
-3.27583e-06
0.000242049
-3.55466e-06
0.000242798
-3.85829e-06
0.000243611
-4.18907e-06
0.000244493
-4.54963e-06
0.000245451
-4.94287e-06
0.000246491
-5.37201e-06
0.000247622
-5.84064e-06
0.00024885
-6.35276e-06
0.000250185
-6.91287e-06
0.000251637
-7.52597e-06
0.000253217
-8.1977e-06
0.000254937
-8.93441e-06
0.000256811
-9.74326e-06
0.000258852
-1.06324e-05
0.000261078
-1.16109e-05
0.000263506
-1.26893e-05
0.000266156
-1.38796e-05
0.000269052
-1.51954e-05
0.000272218
-1.66525e-05
0.000275683
-1.82692e-05
0.000279477
-2.00664e-05
0.000283637
-2.20687e-05
0.000288202
-2.43048e-05
0.000293218
-2.68084e-05
0.000298735
-2.9619e-05
0.000304811
-3.2784e-05
0.000311512
-3.63593e-05
0.000318914
-4.04123e-05
0.000327101
-4.50241e-05
0.000336172
-5.02932e-05
0.000346238
-5.63399e-05
0.000357428
-6.33119e-05
0.000369889
-7.13926e-05
0.000383789
-8.08103e-05
0.000399317
-9.18524e-05
0.000416687
-0.000104883
0.000436136
-0.000120368
0.000457914
-0.000138905
0.000482281
-0.000161275
0.000509465
-0.000188495
0.000539626
-0.000221914
0.000572719
-0.00026331
0.00060836
-0.000315075
0.000645333
-0.000380396
0.000681229
-0.000463526
0.000709813
-0.000570217
0.000721592
-0.000707307
0.000679307
-0.000885005
0.000540653
-0.00110283
-0.00141386
0.000112206
-0.00033574
0.000212611
-0.000355273
0.000296577
-0.00032856
0.000380695
-0.000216908
0.000476753
3.10479e-05
0.000532324
0.0003272
0.000540587
0.000512254
0.000517728
0.000573616
0.000470615
0.000553006
0.00041611
0.00048321
0.000369749
0.000408278
0.000335942
0.000341654
0.00031179
0.000280909
0.00029263
0.000228341
0.00027599
0.000185849
0.000261299
0.00015226
0.000248453
0.000125504
0.000237327
0.000103896
0.000227768
8.62203e-05
0.000219623
7.15948e-05
0.000212749
5.93697e-05
0.000207011
4.90626e-05
0.000202287
4.03088e-05
0.000198464
3.28301e-05
0.000195441
2.6411e-05
0.000193127
2.08838e-05
0.000191438
1.61151e-05
0.000190298
1.19983e-05
0.000189638
8.44686e-06
0.000189396
5.38943e-06
0.000189515
2.76662e-06
0.000189943
5.26634e-07
0.000190635
-1.37595e-06
0.000191544
-2.97988e-06
0.000192631
-4.31829e-06
0.00019386
-5.41885e-06
0.000195201
-6.30702e-06
0.000196627
-7.0074e-06
0.000198112
-7.54267e-06
0.000199636
-7.93374e-06
0.000201179
-8.19938e-06
0.000202725
-8.35659e-06
0.000204261
-8.4207e-06
0.000205776
-8.40557e-06
0.000207261
-8.32374e-06
0.000208708
-8.18654e-06
0.00021011
-8.00401e-06
0.000211464
-7.78502e-06
0.000212766
-7.53741e-06
0.000214014
-7.26803e-06
0.000215206
-6.98282e-06
0.000216341
-6.68693e-06
0.00021742
-6.38476e-06
0.000218443
-6.08005e-06
0.00021941
-5.77595e-06
0.000220324
-5.47505e-06
0.000221185
-5.17952e-06
0.000221995
-4.89104e-06
0.000222757
-4.61099e-06
0.000223472
-4.3404e-06
0.000224142
-4.08005e-06
0.000224769
-3.83046e-06
0.000225357
-3.592e-06
0.000225905
-3.36482e-06
0.000226418
-3.14898e-06
0.000226896
-2.94441e-06
0.000227342
-2.75092e-06
0.000227758
-2.56828e-06
0.000228145
-2.3962e-06
0.000228506
-2.23432e-06
0.000228842
-2.08228e-06
0.000229154
-1.93967e-06
0.000229444
-1.80607e-06
0.000229714
-1.68108e-06
0.000229965
-1.56427e-06
0.000230199
-1.45523e-06
0.000230416
-1.35354e-06
0.000230617
-1.25878e-06
0.000230804
-1.17059e-06
0.000230978
-1.08857e-06
0.00023114
-1.01236e-06
0.00023129
-9.41627e-07
0.00023143
-8.76017e-07
0.00023156
-8.15237e-07
0.000231681
-7.58987e-07
0.000231794
-7.06979e-07
0.000231899
-6.58957e-07
0.000231997
-6.14678e-07
0.000232088
-5.73915e-07
0.000232174
-5.36452e-07
0.000232253
-5.02077e-07
0.000232328
-4.70617e-07
0.000232399
-4.41902e-07
0.000232465
-4.15769e-07
0.000232527
-3.92085e-07
0.000232586
-3.70711e-07
0.000232642
-3.5153e-07
0.000232695
-3.34433e-07
0.000232746
-3.19325e-07
0.000232795
-3.06135e-07
0.000232841
-2.94776e-07
0.000232887
-2.85189e-07
0.000232931
-2.77323e-07
0.000232974
-2.71128e-07
0.000233016
-2.66576e-07
0.000233058
-2.63649e-07
0.0002331
-2.62326e-07
0.000233142
-2.62606e-07
0.000233184
-2.64492e-07
0.000233226
-2.67999e-07
0.00023327
-2.73155e-07
0.000233314
-2.79991e-07
0.00023336
-2.88555e-07
0.000233408
-2.98902e-07
0.000233457
-3.11099e-07
0.000233509
-3.25222e-07
0.000233563
-3.41368e-07
0.000233621
-3.59637e-07
0.000233681
-3.80135e-07
0.000233745
-4.03015e-07
0.000233813
-4.28411e-07
0.000233886
-4.56485e-07
0.000233964
-4.87413e-07
0.000234046
-5.21404e-07
0.000234135
-5.58671e-07
0.000234231
-5.99459e-07
0.000234333
-6.44025e-07
0.000234443
-6.92646e-07
0.000234562
-7.45656e-07
0.000234689
-8.03386e-07
0.000234827
-8.66216e-07
0.000234975
-9.34554e-07
0.000235136
-1.00884e-06
0.000235309
-1.08957e-06
0.000235496
-1.17728e-06
0.000235698
-1.27254e-06
0.000235916
-1.376e-06
0.000236152
-1.48834e-06
0.000236408
-1.61031e-06
0.000236684
-1.74273e-06
0.000236983
-1.88653e-06
0.000237307
-2.04266e-06
0.000237657
-2.21222e-06
0.000238037
-2.39638e-06
0.000238448
-2.59643e-06
0.000238893
-2.8138e-06
0.000239375
-3.05003e-06
0.000239898
-3.30683e-06
0.000240464
-3.58608e-06
0.000241078
-3.88984e-06
0.000241744
-4.22039e-06
0.000242466
-4.58024e-06
0.000243249
-4.97217e-06
0.000244099
-5.39924e-06
0.000245021
-5.86487e-06
0.000246021
-6.37282e-06
0.000247108
-6.92729e-06
0.000248288
-7.53297e-06
0.00024957
-8.1951e-06
0.000250964
-8.91949e-06
0.000252479
-9.71273e-06
0.000254127
-1.05822e-05
0.00025592
-1.15361e-05
0.000257871
-1.25839e-05
0.000259996
-1.37362e-05
0.000262312
-1.50051e-05
0.000264837
-1.64042e-05
0.000267591
-1.79493e-05
0.000270597
-1.96584e-05
0.00027388
-2.15522e-05
0.000277468
-2.36546e-05
0.000281393
-2.59933e-05
0.000285688
-2.86007e-05
0.000290395
-3.15144e-05
0.000295554
-3.47788e-05
0.000301216
-3.84461e-05
0.000307435
-4.25782e-05
0.000314272
-4.72488e-05
0.000321794
-5.25461e-05
0.000330077
-5.85763e-05
0.000339205
-6.54678e-05
0.00034927
-7.33768e-05
0.000360372
-8.24945e-05
0.000372617
-9.30561e-05
0.000386118
-0.000105353
0.000400983
-0.000119748
0.000417308
-0.000136693
0.000435162
-0.00015676
0.000454553
-0.000180666
0.000475379
-0.000209321
0.000497339
-0.000243875
0.000519804
-0.000285776
0.000541561
-0.000336832
0.000560429