/*--------------------------------*- C++ -*----------------------------------*\
  =========                 |
  \\      /  F ield         | OpenFOAM: The Open Source CFD Toolbox
   \\    /   O peration     | Website:  https://openfoam.org
    \\  /    A nd           | Version:  dev
     \\/     M anipulation  |
\*---------------------------------------------------------------------------*/
FoamFile
{
    version     2.0;
    format      ascii;
    class       volVectorField;
    location    "10";
    object      U;
}
// * * * * * * * * * * * * * * * * * * * * * * * * * * * * * * * * * * * * * //

dimensions      [0 1 -1 0 0 0 0];

internalField   nonuniform List<vector> 
8000
(
(0.0997526 5.78825e-05 0)
(0.100137 -0.000254705 0)
(0.100425 -0.00104614 0)
(0.0995657 0.000178535 0)
(0.0995279 0.000303332 0)
(0.100826 5.60644e-05 0)
(0.102721 -0.0022461 0)
(0.100029 1.04829e-05 0)
(0.0990614 0.000807608 0)
(0.101373 0.00180853 0)
(0.105259 -0.000670634 0)
(0.104042 0.00192269 0)
(0.097464 0.00159164 0)
(0.100732 0.00483768 0)
(0.105703 0.00471966 0)
(0.109401 0.00855096 0)
(0.0937396 0.00265476 0)
(0.0977319 0.00818904 0)
(0.102057 0.0123392 0)
(0.109469 0.018858 0)
(0.0875147 0.0038341 0)
(0.0917667 0.0107129 0)
(0.0942926 0.0184861 0)
(0.10165 0.0285878 0)
(0.0794754 0.00480388 0)
(0.0835957 0.0119815 0)
(0.0840995 0.0211453 0)
(0.08895 0.0336283 0)
(0.0706462 0.00529818 0)
(0.0745654 0.0121348 0)
(0.0735536 0.0210196 0)
(0.0753566 0.0330724 0)
(0.0623936 0.00536366 0)
(0.0661857 0.0115251 0)
(0.0644922 0.0196146 0)
(0.063511 0.02941 0)
(0.0545896 0.00536611 0)
(0.0585972 0.0106543 0)
(0.0570548 0.0179812 0)
(0.0544467 0.0255455 0)
(0.0470743 0.00528147 0)
(0.0517735 0.00972389 0)
(0.0508708 0.0164105 0)
(0.0476559 0.0224875 0)
(0.0402751 0.00461398 0)
(0.0457342 0.00846444 0)
(0.0453882 0.0145288 0)
(0.0421605 0.0197341 0)
(0.0347941 0.00339047 0)
(0.0404698 0.0068094 0)
(0.040398 0.0121792 0)
(0.0375071 0.0167484 0)
(0.0307782 0.00223043 0)
(0.0359873 0.00521431 0)
(0.0360017 0.00980204 0)
(0.0336178 0.0137016 0)
(0.0278355 0.00149551 0)
(0.0322717 0.00406372 0)
(0.0322875 0.00781447 0)
(0.0304116 0.0110328 0)
(0.025526 0.0011158 0)
(0.0292627 0.0033236 0)
(0.0292555 0.00629111 0)
(0.0277808 0.0089108 0)
(0.0236038 0.000905578 0)
(0.0268469 0.00279886 0)
(0.0268148 0.0051281 0)
(0.0256301 0.00726379 0)
(0.0219696 0.000752942 0)
(0.0248937 0.0023691 0)
(0.0248411 0.00421519 0)
(0.0238704 0.00596734 0)
(0.0205835 0.000624631 0)
(0.0232981 0.0019981 0)
(0.0232303 0.00348106 0)
(0.022426 0.00492499 0)
(0.019416 0.000515926 0)
(0.0219851 0.00167781 0)
(0.0219076 0.00288128 0)
(0.0212373 0.00407306 0)
(0.0184379 0.000425069 0)
(0.0209005 0.00140272 0)
(0.0208188 0.00238555 0)
(0.0202581 0.00336833 0)
(0.0176227 0.000349356 0)
(0.0200037 0.00116681 0)
(0.0199229 0.00197189 0)
(0.0194521 0.00277976 0)
(0.0169469 0.000286028 0)
(0.0192635 0.000964464 0)
(0.0191876 0.00162383 0)
(0.0187909 0.00228434 0)
(0.0163907 0.000232752 0)
(0.0186553 0.000790812 0)
(0.0185872 0.00132885 0)
(0.0182516 0.00186464 0)
(0.0159371 0.000187642 0)
(0.0181593 0.000641648 0)
(0.0181009 0.00107733 0)
(0.0178159 0.00150729 0)
(0.0155715 0.000149222 0)
(0.0177593 0.000513415 0)
(0.0177116 0.000861866 0)
(0.0174686 0.00120178 0)
(0.0152817 0.000116339 0)
(0.0174417 0.000403077 0)
(0.017405 0.000676708 0)
(0.0171972 0.000939837 0)
(0.0150573 8.80998e-05 0)
(0.0171951 0.000308085 0)
(0.0171691 0.000517268 0)
(0.016991 0.0007149 0)
(0.0148891 6.38001e-05 0)
(0.0170096 0.00022632 0)
(0.0169937 0.000379907 0)
(0.0168411 0.000521669 0)
(0.0147694 4.28454e-05 0)
(0.0168767 0.00015596 0)
(0.0168702 0.000261657 0)
(0.0167393 0.000355833 0)
(0.0146915 2.47201e-05 0)
(0.0167891 9.55457e-05 0)
(0.016791 0.000160202 0)
(0.016679 0.000213926 0)
(0.0146496 8.46385e-06 0)
(0.0167402 4.38771e-05 0)
(0.0167495 7.37272e-05 0)
(0.016654 9.31226e-05 0)
(0.0146393 -2.62389e-06 0)
(0.0167237 1.97057e-06 0)
(0.0167401 1.24957e-06 0)
(0.0166594 -9.06332e-06 0)
(0.014652 -1.42098e-05 0)
(0.0167341 -3.55483e-05 0)
(0.016758 -6.11074e-05 0)
(0.0166905 -9.58657e-05 0)
(0.0146881 -2.38669e-05 0)
(0.0167689 -6.71061e-05 0)
(0.0167992 -0.00011409 0)
(0.0167434 -0.000169405 0)
(0.0147428 -3.16939e-05 0)
(0.0168234 -9.30366e-05 0)
(0.0168594 -0.000157786 0)
(0.0168138 -0.000230026 0)
(0.0148126 -3.80226e-05 0)
(0.0168941 -0.000114156 0)
(0.0169353 -0.000193349 0)
(0.0168985 -0.000279265 0)
(0.0148944 -4.30705e-05 0)
(0.016978 -0.000131074 0)
(0.0170238 -0.000221828 0)
(0.0169949 -0.000318621 0)
(0.0149859 -4.70061e-05 0)
(0.0170723 -0.000144331 0)
(0.0171222 -0.000244122 0)
(0.0171003 -0.000349329 0)
(0.0150849 -4.99709e-05 0)
(0.0171746 -0.000154391 0)
(0.0172283 -0.000261013 0)
(0.0172124 -0.00037247 0)
(0.0151894 -5.20891e-05 0)
(0.017283 -0.00016166 0)
(0.0173399 -0.000273185 0)
(0.0173294 -0.000389013 0)
(0.0152977 -5.34705e-05 0)
(0.0173955 -0.000166504 0)
(0.0174553 -0.00028126 0)
(0.0174494 -0.000399838 0)
(0.0154084 -5.42133e-05 0)
(0.0175106 -0.00016926 0)
(0.017573 -0.000285819 0)
(0.017571 -0.000405748 0)
(0.0155202 -5.44093e-05 0)
(0.0176271 -0.000170226 0)
(0.0176917 -0.000287363 0)
(0.0176931 -0.000407426 0)
(0.0156321 -5.41423e-05 0)
(0.0177437 -0.000169659 0)
(0.0178102 -0.000286314 0)
(0.0178143 -0.000405496 0)
(0.0157431 -5.34845e-05 0)
(0.0178594 -0.000167797 0)
(0.0179275 -0.000283085 0)
(0.0179341 -0.000400558 0)
(0.0158524 -5.24995e-05 0)
(0.0179735 -0.000164871 0)
(0.018043 -0.00027807 0)
(0.0180515 -0.000393145 0)
(0.0159596 -5.12464e-05 0)
(0.0180852 -0.000161078 0)
(0.0181559 -0.000271595 0)
(0.0181659 -0.000383712 0)
(0.0160639 -4.97788e-05 0)
(0.0181941 -0.000156587 0)
(0.0182657 -0.00026395 0)
(0.018277 -0.000372663 0)
(0.0161651 -4.81458e-05 0)
(0.0182997 -0.000151546 0)
(0.0183721 -0.00025539 0)
(0.0183844 -0.000360357 0)
(0.0162629 -4.63886e-05 0)
(0.0184017 -0.000146088 0)
(0.0184747 -0.000246136 0)
(0.0184877 -0.000347105 0)
(0.0163569 -4.45419e-05 0)
(0.0184998 -0.000140328 0)
(0.0185734 -0.000236381 0)
(0.0185868 -0.000333178 0)
(0.016447 -4.26343e-05 0)
(0.0185938 -0.000134367 0)
(0.0186678 -0.000226292 0)
(0.0186816 -0.000318808 0)
(0.0165332 -4.06916e-05 0)
(0.0186838 -0.00012829 0)
(0.018758 -0.000216014 0)
(0.018772 -0.000304195 0)
(0.0166154 -3.87373e-05 0)
(0.0187695 -0.000122169 0)
(0.018844 -0.000205669 0)
(0.0188579 -0.000289509 0)
(0.0166936 -3.67914e-05 0)
(0.0188511 -0.000116064 0)
(0.0189256 -0.000195357 0)
(0.0189395 -0.00027489 0)
(0.0167677 -3.48696e-05 0)
(0.0189285 -0.000110026 0)
(0.019003 -0.000185165 0)
(0.0190167 -0.000260458 0)
(0.016838 -3.29844e-05 0)
(0.0190017 -0.000104098 0)
(0.0190763 -0.000175162 0)
(0.0190897 -0.000246307 0)
(0.0169044 -3.11452e-05 0)
(0.019071 -9.83128e-05 0)
(0.0191455 -0.000165403 0)
(0.0191586 -0.000232515 0)
(0.016967 -2.93599e-05 0)
(0.0191363 -9.26968e-05 0)
(0.0192107 -0.000155934 0)
(0.0192235 -0.000219141 0)
(0.017026 -2.76358e-05 0)
(0.0191979 -8.72708e-05 0)
(0.0192722 -0.000146787 0)
(0.0192845 -0.000206233 0)
(0.0170816 -2.5977e-05 0)
(0.0192558 -8.20501e-05 0)
(0.0193299 -0.000137989 0)
(0.0193418 -0.000193824 0)
(0.0171337 -2.43874e-05 0)
(0.0193102 -7.7045e-05 0)
(0.0193842 -0.000129556 0)
(0.0193956 -0.000181939 0)
(0.0171827 -2.28691e-05 0)
(0.0193612 -7.2262e-05 0)
(0.019435 -0.000121499 0)
(0.019446 -0.000170591 0)
(0.0172286 -2.14229e-05 0)
(0.0194091 -6.7705e-05 0)
(0.0194827 -0.000113823 0)
(0.0194932 -0.000159787 0)
(0.0172715 -2.00485e-05 0)
(0.0194539 -6.33748e-05 0)
(0.0195273 -0.00010653 0)
(0.0195374 -0.000149526 0)
(0.0173117 -1.87453e-05 0)
(0.0194958 -5.92703e-05 0)
(0.019569 -9.96172e-05 0)
(0.0195787 -0.000139805 0)
(0.0173493 -1.75123e-05 0)
(0.019535 -5.53873e-05 0)
(0.019608 -9.30796e-05 0)
(0.0196172 -0.000130613 0)
(0.0173844 -1.63481e-05 0)
(0.0195716 -5.17209e-05 0)
(0.0196444 -8.69091e-05 0)
(0.0196532 -0.000121939 0)
(0.0174172 -1.52513e-05 0)
(0.0196058 -4.82653e-05 0)
(0.0196784 -8.10956e-05 0)
(0.0196867 -0.000113768 0)
(0.0174478 -1.422e-05 0)
(0.0196377 -4.50139e-05 0)
(0.0197101 -7.5627e-05 0)
(0.019718 -0.000106083 0)
(0.0174763 -1.32517e-05 0)
(0.0196674 -4.19591e-05 0)
(0.0197396 -7.04909e-05 0)
(0.0197471 -9.88678e-05 0)
(0.0175028 -1.23436e-05 0)
(0.0196951 -3.90931e-05 0)
(0.0197671 -6.56734e-05 0)
(0.0197743 -9.21025e-05 0)
(0.0175276 -1.14928e-05 0)
(0.0197209 -3.64083e-05 0)
(0.0197928 -6.1161e-05 0)
(0.0197995 -8.57667e-05 0)
(0.0175506 -1.06965e-05 0)
(0.0197449 -3.38964e-05 0)
(0.0198166 -5.69393e-05 0)
(0.0198231 -7.98399e-05 0)
(0.017572 -9.95205e-06 0)
(0.0197673 -3.15489e-05 0)
(0.0198388 -5.29936e-05 0)
(0.0198449 -7.43023e-05 0)
(0.017592 -9.25699e-06 0)
(0.0197881 -2.93575e-05 0)
(0.0198595 -4.93101e-05 0)
(0.0198653 -6.9134e-05 0)
(0.0176105 -8.60866e-06 0)
(0.0198075 -2.73134e-05 0)
(0.0198787 -4.58751e-05 0)
(0.0198842 -6.43155e-05 0)
(0.0176278 -8.00495e-06 0)
(0.0198255 -2.54091e-05 0)
(0.0198966 -4.26752e-05 0)
(0.0199018 -5.98275e-05 0)
(0.0176439 -7.4432e-06 0)
(0.0198422 -2.36366e-05 0)
(0.0199132 -3.96972e-05 0)
(0.0199182 -5.56508e-05 0)
(0.0176588 -6.92075e-06 0)
(0.0198578 -2.19882e-05 0)
(0.0199287 -3.69281e-05 0)
(0.0199334 -5.17681e-05 0)
(0.0176727 -6.43558e-06 0)
(0.0198723 -2.04568e-05 0)
(0.0199431 -3.43561e-05 0)
(0.0199476 -4.81621e-05 0)
(0.0176856 -5.98529e-06 0)
(0.0198858 -1.90355e-05 0)
(0.0199565 -3.19694e-05 0)
(0.0199607 -4.48165e-05 0)
(0.0176977 -5.56774e-06 0)
(0.0198984 -1.7718e-05 0)
(0.0199689 -2.97576e-05 0)
(0.019973 -4.17154e-05 0)
(0.0177089 -5.18087e-06 0)
(0.0199101 -1.6498e-05 0)
(0.0199805 -2.77094e-05 0)
(0.0199844 -3.88439e-05 0)
(0.0177193 -4.823e-06 0)
(0.019921 -1.53697e-05 0)
(0.0199913 -2.58151e-05 0)
(0.019995 -3.61882e-05 0)
(0.017729 -4.49228e-06 0)
(0.0199312 -1.43269e-05 0)
(0.0200014 -2.40649e-05 0)
(0.0200049 -3.37353e-05 0)
(0.017738 -4.18745e-06 0)
(0.0199406 -1.33651e-05 0)
(0.0200108 -2.24503e-05 0)
(0.0200141 -3.14724e-05 0)
(0.0177465 -3.90657e-06 0)
(0.0199495 -1.24789e-05 0)
(0.0200196 -2.09633e-05 0)
(0.0200228 -2.93887e-05 0)
(0.0177544 -3.64831e-06 0)
(0.0199577 -1.16639e-05 0)
(0.0200278 -1.95957e-05 0)
(0.0200308 -2.74727e-05 0)
(0.0177618 -3.41101e-06 0)
(0.0199655 -1.09159e-05 0)
(0.0200354 -1.83409e-05 0)
(0.0200383 -2.57146e-05 0)
(0.0177687 -3.19381e-06 0)
(0.0199727 -1.02308e-05 0)
(0.0200426 -1.7192e-05 0)
(0.0200454 -2.41053e-05 0)
(0.0177752 -2.99517e-06 0)
(0.0199795 -9.60525e-06 0)
(0.0200493 -1.61429e-05 0)
(0.020052 -2.26361e-05 0)
(0.0177812 -2.81401e-06 0)
(0.0199859 -9.03562e-06 0)
(0.0200557 -1.51881e-05 0)
(0.0200582 -2.12987e-05 0)
(0.017787 -2.64945e-06 0)
(0.0199919 -8.51899e-06 0)
(0.0200616 -1.43222e-05 0)
(0.0200641 -2.00861e-05 0)
(0.0177924 -2.50056e-06 0)
(0.0199976 -8.05232e-06 0)
(0.0200673 -1.35404e-05 0)
(0.0200696 -1.89914e-05 0)
(0.0177975 -2.36687e-06 0)
(0.020003 -7.63375e-06 0)
(0.0200726 -1.2839e-05 0)
(0.0200748 -1.80087e-05 0)
(0.0178024 -2.2477e-06 0)
(0.0200081 -7.26031e-06 0)
(0.0200777 -1.22133e-05 0)
(0.0200798 -1.71331e-05 0)
(0.017807 -2.14221e-06 0)
(0.020013 -6.93002e-06 0)
(0.0200825 -1.16599e-05 0)
(0.0200846 -1.6359e-05 0)
(0.0178114 -2.04908e-06 0)
(0.0200177 -6.64088e-06 0)
(0.0200871 -1.11765e-05 0)
(0.0200891 -1.56829e-05 0)
(0.0178156 -1.96822e-06 0)
(0.0200222 -6.39149e-06 0)
(0.0200916 -1.07604e-05 0)
(0.0200935 -1.51007e-05 0)
(0.0178197 -1.89976e-06 0)
(0.0200265 -6.18107e-06 0)
(0.0200959 -1.04088e-05 0)
(0.0200977 -1.46089e-05 0)
(0.0178237 -1.84307e-06 0)
(0.0200307 -6.00815e-06 0)
(0.0201 -1.01202e-05 0)
(0.0201018 -1.4205e-05 0)
(0.0178276 -1.79786e-06 0)
(0.0200348 -5.87128e-06 0)
(0.0201041 -9.89228e-06 0)
(0.0201057 -1.38871e-05 0)
(0.0178313 -1.76342e-06 0)
(0.0200388 -5.76986e-06 0)
(0.0201081 -9.72438e-06 0)
(0.0201096 -1.36535e-05 0)
(0.0178351 -1.73944e-06 0)
(0.0200428 -5.7035e-06 0)
(0.020112 -9.61606e-06 0)
(0.0201135 -1.35033e-05 0)
(0.0178388 -1.72613e-06 0)
(0.0200467 -5.67245e-06 0)
(0.0201159 -9.56682e-06 0)
(0.0201173 -1.34347e-05 0)
(0.0178424 -1.72382e-06 0)
(0.0200507 -5.67645e-06 0)
(0.0201198 -9.57591e-06 0)
(0.0201211 -1.34479e-05 0)
(0.0178461 -1.73276e-06 0)
(0.0200546 -5.71544e-06 0)
(0.0201237 -9.64374e-06 0)
(0.020125 -1.35437e-05 0)
(0.0178499 -1.75255e-06 0)
(0.0200586 -5.78936e-06 0)
(0.0201276 -9.77028e-06 0)
(0.0201288 -1.37226e-05 0)
(0.0178537 -1.78277e-06 0)
(0.0200627 -5.8985e-06 0)
(0.0201316 -9.95692e-06 0)
(0.0201328 -1.39859e-05 0)
(0.0178575 -1.82384e-06 0)
(0.0200668 -6.04438e-06 0)
(0.0201357 -1.02054e-05 0)
(0.0201368 -1.43355e-05 0)
(0.0178615 -1.87602e-06 0)
(0.0200711 -6.22762e-06 0)
(0.0201399 -1.05172e-05 0)
(0.0201409 -1.47733e-05 0)
(0.0178656 -1.94093e-06 0)
(0.0200755 -6.45028e-06 0)
(0.0201443 -1.08941e-05 0)
(0.0201452 -1.53025e-05 0)
(0.0178699 -2.01852e-06 0)
(0.02008 -6.71272e-06 0)
(0.0201488 -1.13379e-05 0)
(0.0201496 -1.59266e-05 0)
(0.0178743 -2.10894e-06 0)
(0.0200848 -7.01701e-06 0)
(0.0201535 -1.18523e-05 0)
(0.0201542 -1.66496e-05 0)
(0.017879 -2.21227e-06 0)
(0.0200898 -7.36442e-06 0)
(0.0201584 -1.24404e-05 0)
(0.0201591 -1.74765e-05 0)
(0.0178838 -2.32871e-06 0)
(0.0200951 -7.75774e-06 0)
(0.0201636 -1.31065e-05 0)
(0.0201642 -1.84123e-05 0)
(0.017889 -2.45962e-06 0)
(0.0201006 -8.19991e-06 0)
(0.0201691 -1.38547e-05 0)
(0.0201695 -1.94624e-05 0)
(0.0178945 -2.60649e-06 0)
(0.0201065 -8.69404e-06 0)
(0.0201749 -1.46899e-05 0)
(0.0201752 -2.0634e-05 0)
(0.0179003 -2.77046e-06 0)
(0.0201127 -9.24313e-06 0)
(0.0201811 -1.56168e-05 0)
(0.0201813 -2.19345e-05 0)
(0.0179064 -2.95243e-06 0)
(0.0201194 -9.84995e-06 0)
(0.0201876 -1.66409e-05 0)
(0.0201877 -2.33723e-05 0)
(0.017913 -3.15323e-06 0)
(0.0201265 -1.05185e-05 0)
(0.0201946 -1.77694e-05 0)
(0.0201946 -2.49569e-05 0)
(0.0179201 -3.37344e-06 0)
(0.020134 -1.12528e-05 0)
(0.0202021 -1.90098e-05 0)
(0.0202019 -2.66987e-05 0)
(0.0179276 -3.61483e-06 0)
(0.0201422 -1.20582e-05 0)
(0.0202101 -2.03703e-05 0)
(0.0202097 -2.86084e-05 0)
(0.0179357 -3.87959e-06 0)
(0.0201509 -1.29404e-05 0)
(0.0202187 -2.18598e-05 0)
(0.0202182 -3.06986e-05 0)
(0.0179444 -4.16927e-06 0)
(0.0201602 -1.39045e-05 0)
(0.0202279 -2.34871e-05 0)
(0.0202272 -3.29824e-05 0)
(0.0179537 -4.48585e-06 0)
(0.0201702 -1.49568e-05 0)
(0.0202378 -2.5263e-05 0)
(0.0202369 -3.54749e-05 0)
(0.0179637 -4.83143e-06 0)
(0.020181 -1.6104e-05 0)
(0.0202484 -2.7199e-05 0)
(0.0202474 -3.81922e-05 0)
(0.0179746 -5.2077e-06 0)
(0.0201927 -1.73534e-05 0)
(0.0202599 -2.93078e-05 0)
(0.0202586 -4.11522e-05 0)
(0.0179862 -5.61683e-06 0)
(0.0202052 -1.87135e-05 0)
(0.0202722 -3.16041e-05 0)
(0.0202707 -4.43743e-05 0)
(0.0179988 -6.06165e-06 0)
(0.0202187 -2.01935e-05 0)
(0.0202856 -3.41028e-05 0)
(0.0202838 -4.7879e-05 0)
(0.0180124 -6.54587e-06 0)
(0.0202333 -2.18033e-05 0)
(0.0203 -3.68193e-05 0)
(0.0202979 -5.16892e-05 0)
(0.0180271 -7.07308e-06 0)
(0.0202491 -2.35535e-05 0)
(0.0203155 -3.97717e-05 0)
(0.0203132 -5.58303e-05 0)
(0.0180429 -7.6469e-06 0)
(0.0202661 -2.54556e-05 0)
(0.0203323 -4.29797e-05 0)
(0.0203296 -6.03297e-05 0)
(0.0180601 -8.27062e-06 0)
(0.0202845 -2.75214e-05 0)
(0.0203504 -4.64641e-05 0)
(0.0203474 -6.52183e-05 0)
(0.0180786 -8.94779e-06 0)
(0.0203044 -2.97652e-05 0)
(0.02037 -5.02494e-05 0)
(0.0203667 -7.05281e-05 0)
(0.0180987 -9.68334e-06 0)
(0.0203259 -3.22026e-05 0)
(0.0203913 -5.43612e-05 0)
(0.0203875 -7.62951e-05 0)
(0.0181204 -1.04823e-05 0)
(0.0203492 -3.48503e-05 0)
(0.0204142 -5.88276e-05 0)
(0.02041 -8.25582e-05 0)
(0.0181439 -1.13504e-05 0)
(0.0203744 -3.77265e-05 0)
(0.020439 -6.36786e-05 0)
(0.0204343 -8.93598e-05 0)
(0.0181693 -1.22944e-05 0)
(0.0204017 -4.0851e-05 0)
(0.0204659 -6.89472e-05 0)
(0.0204607 -9.67464e-05 0)
(0.0181968 -1.33202e-05 0)
(0.0204312 -4.42454e-05 0)
(0.020495 -7.46703e-05 0)
(0.0204892 -0.000104769 0)
(0.0182267 -1.44349e-05 0)
(0.0204632 -4.79329e-05 0)
(0.0205265 -8.0888e-05 0)
(0.0205201 -0.000113485 0)
(0.018259 -1.56468e-05 0)
(0.0204979 -5.19406e-05 0)
(0.0205606 -8.76446e-05 0)
(0.0205535 -0.000122954 0)
(0.0182941 -1.69646e-05 0)
(0.0205354 -5.62969e-05 0)
(0.0205976 -9.49881e-05 0)
(0.0205898 -0.000133244 0)
(0.0183321 -1.83984e-05 0)
(0.0205761 -6.10333e-05 0)
(0.0206377 -0.00010297 0)
(0.020629 -0.000144428 0)
(0.0183733 -1.99584e-05 0)
(0.0206202 -6.61845e-05 0)
(0.0206811 -0.000111651 0)
(0.0206716 -0.000156588 0)
(0.018418 -2.16565e-05 0)
(0.0206681 -7.17886e-05 0)
(0.0207282 -0.000121092 0)
(0.0207177 -0.000169813 0)
(0.0184665 -2.35058e-05 0)
(0.0207199 -7.78878e-05 0)
(0.0207793 -0.000131366 0)
(0.0207677 -0.000184201 0)
(0.0185191 -2.55209e-05 0)
(0.0207762 -8.45285e-05 0)
(0.0208347 -0.00014255 0)
(0.020822 -0.00019986 0)
(0.0185762 -2.77171e-05 0)
(0.0208373 -9.17616e-05 0)
(0.0208948 -0.000154728 0)
(0.0208808 -0.00021691 0)
(0.0186383 -3.01113e-05 0)
(0.0209036 -9.96436e-05 0)
(0.02096 -0.000167997 0)
(0.0209447 -0.000235482 0)
(0.0187056 -3.27235e-05 0)
(0.0209755 -0.000108238 0)
(0.0210308 -0.000182463 0)
(0.0210139 -0.000255723 0)
(0.0187789 -3.55748e-05 0)
(0.0210537 -0.000117616 0)
(0.0211077 -0.000198241 0)
(0.0210892 -0.000277796 0)
(0.0188584 -3.86904e-05 0)
(0.0211386 -0.000127855 0)
(0.0211912 -0.000215462 0)
(0.0211708 -0.000301879 0)
(0.018945 -4.20975e-05 0)
(0.0212309 -0.000139041 0)
(0.0212819 -0.000234271 0)
(0.0212596 -0.000328173 0)
(0.0190392 -4.58267e-05 0)
(0.0213313 -0.000151273 0)
(0.0213806 -0.000254827 0)
(0.021356 -0.000356903 0)
(0.0191416 -4.99119e-05 0)
(0.0214405 -0.000164657 0)
(0.0214878 -0.000277311 0)
(0.0214608 -0.000388317 0)
(0.0192532 -5.43906e-05 0)
(0.0215593 -0.000179316 0)
(0.0216045 -0.000301927 0)
(0.0215748 -0.000422696 0)
(0.0193748 -5.93058e-05 0)
(0.0216886 -0.000195386 0)
(0.0217315 -0.0003289 0)
(0.0216988 -0.000460354 0)
(0.0195074 -6.47059e-05 0)
(0.0218295 -0.000213023 0)
(0.0218698 -0.000358488 0)
(0.0218338 -0.000501644 0)
(0.019652 -7.06465e-05 0)
(0.0219831 -0.000232403 0)
(0.0220205 -0.00039098 0)
(0.0219808 -0.000546964 0)
(0.0198099 -7.71912e-05 0)
(0.0221506 -0.000253724 0)
(0.0221848 -0.000426703 0)
(0.022141 -0.000596767 0)
(0.0199824 -8.44119e-05 0)
(0.0223334 -0.000277213 0)
(0.022364 -0.000466032 0)
(0.0223156 -0.000651564 0)
(0.020171 -9.23912e-05 0)
(0.0225331 -0.000303127 0)
(0.0225597 -0.00050939 0)
(0.0225061 -0.000711936 0)
(0.0203773 -0.000101223 0)
(0.0227513 -0.000331762 0)
(0.0227734 -0.000557263 0)
(0.0227141 -0.000778548 0)
(0.0206034 -0.000111018 0)
(0.0229901 -0.000363457 0)
(0.023007 -0.000610208 0)
(0.0229413 -0.000852162 0)
(0.0208513 -0.000121903 0)
(0.0232516 -0.000398603 0)
(0.0232627 -0.000668867 0)
(0.0231896 -0.000933654 0)
(0.0211234 -0.000134025 0)
(0.0235382 -0.000437657 0)
(0.0235428 -0.000733983 0)
(0.0234615 -0.00102403 0)
(0.0214225 -0.000147556 0)
(0.0238527 -0.000481148 0)
(0.0238499 -0.000806421 0)
(0.0237592 -0.00112448 0)
(0.0217517 -0.000162701 0)
(0.0241983 -0.000529694 0)
(0.024187 -0.000887186 0)
(0.0240857 -0.00123635 0)
(0.0221146 -0.000179698 0)
(0.0245785 -0.000584023 0)
(0.0245575 -0.00097746 0)
(0.024444 -0.00136123 0)
(0.0225153 -0.000198833 0)
(0.0249974 -0.000644994 0)
(0.0249653 -0.00107863 0)
(0.0248378 -0.00150102 0)
(0.0229586 -0.000220445 0)
(0.0254597 -0.000713626 0)
(0.0254147 -0.00119235 0)
(0.0252711 -0.00165791 0)
(0.0234498 -0.000244941 0)
(0.0259708 -0.000791137 0)
(0.0259109 -0.00132058 0)
(0.0257487 -0.00183453 0)
(0.0239954 -0.000272815 0)
(0.0265369 -0.00087899 0)
(0.0264596 -0.00146566 0)
(0.0262757 -0.00203402 0)
(0.0246029 -0.000304666 0)
(0.0271653 -0.000978955 0)
(0.0270676 -0.00163043 0)
(0.0268584 -0.00226015 0)
(0.0252809 -0.000341228 0)
(0.0278643 -0.00109318 0)
(0.0277428 -0.00181834 0)
(0.0275037 -0.00251747 0)
(0.02604 -0.000383407 0)
(0.0286441 -0.00122432 0)
(0.0284942 -0.00203358 0)
(0.0282198 -0.00281152 0)
(0.0268924 -0.000432328 0)
(0.0295163 -0.00137564 0)
(0.0293327 -0.00228132 0)
(0.0290162 -0.0031491 0)
(0.0278529 -0.000489401 0)
(0.030495 -0.00155123 0)
(0.0302709 -0.00256799 0)
(0.0299038 -0.00353862 0)
(0.0289397 -0.000556417 0)
(0.031597 -0.00175624 0)
(0.031324 -0.00290165 0)
(0.0308958 -0.00399052 0)
(0.0301745 -0.000635663 0)
(0.0328426 -0.00199718 0)
(0.03251 -0.00329251 0)
(0.0320071 -0.00451795 0)
(0.0315843 -0.000730111 0)
(0.0342567 -0.00228244 0)
(0.0338508 -0.00375361 0)
(0.033256 -0.00513759 0)
(0.0332024 -0.000843585 0)
(0.0358697 -0.00262288 0)
(0.0353728 -0.00430183 0)
(0.0346637 -0.00587082 0)
(0.0350712 -0.000981356 0)
(0.0377196 -0.00303302 0)
(0.0371085 -0.00495924 0)
(0.0362557 -0.00674535 0)
(0.0372436 -0.00114986 0)
(0.0398544 -0.00353158 0)
(0.0390979 -0.0057551 0)
(0.0380623 -0.00779748 0)
(0.039789 -0.00135951 0)
(0.0423345 -0.00414563 0)
(0.0413911 -0.00672885 0)
(0.0401197 -0.00907541 0)
(0.0427961 -0.00162117 0)
(0.0452393 -0.00490889 0)
(0.044051 -0.00793423 0)
(0.0424711 -0.010644 0)
(0.0463866 -0.00195638 0)
(0.0486711 -0.00587488 0)
(0.0471572 -0.00944601 0)
(0.0451679 -0.0125915 0)
(0.0507148 -0.00238757 0)
(0.0527678 -0.007112 0)
(0.0508129 -0.0113699 0)
(0.0482702 -0.0150403 0)
(0.0560237 -0.00295487 0)
(0.0577162 -0.00872605 0)
(0.0551479 -0.0138579 0)
(0.0518462 -0.0181629 0)
(0.0625492 -0.00372004 0)
(0.0637714 -0.0108818 0)
(0.0603479 -0.0171339 0)
(0.0559747 -0.0222031 0)
(0.0709836 -0.00474994 0)
(0.0713101 -0.0137771 0)
(0.0666058 -0.0215317 0)
(0.0607194 -0.0275276 0)
(0.0810955 -0.00620943 0)
(0.0807871 -0.017879 0)
(0.0743892 -0.0275663 0)
(0.0662003 -0.0346407 0)
(0.096538 -0.0083171 0)
(0.093288 -0.0234807 0)
(0.0836898 -0.036018 0)
(0.0722151 -0.0444726 0)
(0.110358 -0.0107885 0)
(0.108363 -0.0314535 0)
(0.0967686 -0.048125 0)
(0.0797693 -0.0579955 0)
(0.146198 -0.0164056 0)
(0.134063 -0.0446094 0)
(0.111076 -0.0661892 0)
(0.0847788 -0.0786033 0)
(0.157498 -0.0172931 0)
(0.151426 -0.0529043 0)
(0.134892 -0.0881088 0)
(0.104387 -0.106427 0)
(0.24608 -0.0340634 0)
(0.225227 -0.0982771 0)
(0.176252 -0.148586 0)
(0.101609 -0.168314 0)
(0.00872897 -0.0112397 0)
(0.0222052 -0.0157031 0)
(0.0377462 -0.014556 0)
(0.056335 -0.00327224 0)
(0.074576 0.0178052 0)
(0.0791465 0.0341782 0)
(0.0749585 0.0427178 0)
(0.066367 0.0444053 0)
(0.0568557 0.0399792 0)
(0.048446 0.0336174 0)
(0.0420985 0.0285605 0)
(0.0370743 0.0245323 0)
(0.0331481 0.0206523 0)
(0.0301176 0.016886 0)
(0.0276724 0.0136434 0)
(0.0256302 0.0110636 0)
(0.0239249 0.00904013 0)
(0.022505 0.00743063 0)
(0.0213213 0.00613069 0)
(0.0203342 0.00506763 0)
(0.0195121 0.0041887 0)
(0.0188301 0.00345502 0)
(0.0182679 0.00283737 0)
(0.0178088 0.00231378 0)
(0.0174388 0.00186737 0)
(0.0171462 0.00148521 0)
(0.0169208 0.00115709 0)
(0.0167536 0.000874937 0)
(0.0166371 0.000632248 0)
(0.0165643 0.000423777 0)
(0.0165292 0.000245214 0)
(0.0165266 9.29531e-05 0)
(0.0165516 -3.63007e-05 0)
(0.0166002 -0.000145772 0)
(0.0166682 -0.000237621 0)
(0.0167521 -0.000313601 0)
(0.0168488 -0.000375211 0)
(0.0169557 -0.000424212 0)
(0.0170703 -0.000462214 0)
(0.0171904 -0.0004906 0)
(0.0173144 -0.000510614 0)
(0.0174405 -0.000523381 0)
(0.0175674 -0.000529892 0)
(0.0176938 -0.000531033 0)
(0.0178188 -0.000527638 0)
(0.0179416 -0.000520467 0)
(0.0180615 -0.000510187 0)
(0.0181781 -0.000497384 0)
(0.0182908 -0.000482573 0)
(0.0183994 -0.000466208 0)
(0.0185036 -0.000448687 0)
(0.0186034 -0.000430351 0)
(0.0186985 -0.000411498 0)
(0.018789 -0.00039238 0)
(0.018875 -0.000373211 0)
(0.0189564 -0.000354169 0)
(0.0190333 -0.0003354 0)
(0.0191059 -0.000317026 0)
(0.0191744 -0.000299142 0)
(0.0192387 -0.000281822 0)
(0.0192992 -0.000265122 0)
(0.0193559 -0.000249082 0)
(0.0194091 -0.00023373 0)
(0.0194589 -0.000219082 0)
(0.0195055 -0.000205145 0)
(0.019549 -0.000191919 0)
(0.0195896 -0.000179396 0)
(0.0196276 -0.000167564 0)
(0.019663 -0.000156404 0)
(0.0196959 -0.000145896 0)
(0.0197267 -0.000136018 0)
(0.0197553 -0.000126745 0)
(0.0197819 -0.000118053 0)
(0.0198067 -0.000109914 0)
(0.0198297 -0.000102304 0)
(0.0198512 -9.5196e-05 0)
(0.0198711 -8.85641e-05 0)
(0.0198896 -8.23824e-05 0)
(0.0199069 -7.66256e-05 0)
(0.0199229 -7.12691e-05 0)
(0.0199378 -6.62913e-05 0)
(0.0199516 -6.16689e-05 0)
(0.0199645 -5.73805e-05 0)
(0.0199765 -5.34061e-05 0)
(0.0199876 -4.97269e-05 0)
(0.019998 -4.63247e-05 0)
(0.0200077 -4.31828e-05 0)
(0.0200167 -4.02851e-05 0)
(0.0200251 -3.76161e-05 0)
(0.0200329 -3.51627e-05 0)
(0.0200403 -3.29118e-05 0)
(0.0200472 -3.08514e-05 0)
(0.0200536 -2.89705e-05 0)
(0.0200597 -2.72586e-05 0)
(0.0200654 -2.57064e-05 0)
(0.0200708 -2.43057e-05 0)
(0.0200759 -2.30483e-05 0)
(0.0200808 -2.19278e-05 0)
(0.0200854 -2.09379e-05 0)
(0.0200898 -2.00727e-05 0)
(0.0200941 -1.93276e-05 0)
(0.0200982 -1.86989e-05 0)
(0.0201022 -1.81826e-05 0)
(0.020106 -1.77768e-05 0)
(0.0201098 -1.74784e-05 0)
(0.0201136 -1.72863e-05 0)
(0.0201173 -1.71991e-05 0)
(0.020121 -1.72171e-05 0)
(0.0201248 -1.73405e-05 0)
(0.0201285 -1.75707e-05 0)
(0.0201324 -1.79087e-05 0)
(0.0201363 -1.8357e-05 0)
(0.0201403 -1.89186e-05 0)
(0.0201445 -1.95969e-05 0)
(0.0201488 -2.03969e-05 0)
(0.0201533 -2.13233e-05 0)
(0.020158 -2.23822e-05 0)
(0.020163 -2.35803e-05 0)
(0.0201682 -2.49254e-05 0)
(0.0201738 -2.6426e-05 0)
(0.0201797 -2.80921e-05 0)
(0.0201859 -2.99339e-05 0)
(0.0201926 -3.19631e-05 0)
(0.0201998 -3.41932e-05 0)
(0.0202074 -3.66385e-05 0)
(0.0202156 -3.93147e-05 0)
(0.0202244 -4.2239e-05 0)
(0.0202339 -4.54304e-05 0)
(0.0202441 -4.89091e-05 0)
(0.020255 -5.26983e-05 0)
(0.0202669 -5.68225e-05 0)
(0.0202796 -6.13084e-05 0)
(0.0202934 -6.61859e-05 0)
(0.0203082 -7.14866e-05 0)
(0.0203242 -7.72457e-05 0)
(0.0203416 -8.35018e-05 0)
(0.0203603 -9.02968e-05 0)
(0.0203806 -9.76759e-05 0)
(0.0204025 -0.000105689 0)
(0.0204262 -0.000114391 0)
(0.0204518 -0.00012384 0)
(0.0204796 -0.000134103 0)
(0.0205097 -0.00014525 0)
(0.0205422 -0.00015736 0)
(0.0205775 -0.000170517 0)
(0.0206157 -0.000184817 0)
(0.0206571 -0.000200362 0)
(0.020702 -0.000217265 0)
(0.0207506 -0.000235652 0)
(0.0208034 -0.000255659 0)
(0.0208605 -0.000277438 0)
(0.0209226 -0.000301157 0)
(0.0209899 -0.000327001 0)
(0.0210629 -0.000355176 0)
(0.0211422 -0.00038591 0)
(0.0212283 -0.000419455 0)
(0.0213218 -0.000456095 0)
(0.0214235 -0.000496144 0)
(0.0215339 -0.000539956 0)
(0.021654 -0.000587925 0)
(0.0217847 -0.000640495 0)
(0.0219268 -0.000698169 0)
(0.0220817 -0.00076151 0)
(0.0222503 -0.000831161 0)
(0.0224341 -0.000907847 0)
(0.0226346 -0.0009924 0)
(0.0228534 -0.00108577 0)
(0.0230923 -0.00118903 0)
(0.0233535 -0.00130346 0)
(0.0236391 -0.00143049 0)
(0.0239518 -0.0015718 0)
(0.0242944 -0.00172937 0)
(0.0246702 -0.00190548 0)
(0.0250828 -0.00210283 0)
(0.0255365 -0.00232463 0)
(0.0260358 -0.00257468 0)
(0.0265861 -0.00285751 0)
(0.0271934 -0.00317859 0)
(0.0278647 -0.00354453 0)
(0.0286079 -0.00396339 0)
(0.0294321 -0.00444505 0)
(0.0303475 -0.00500171 0)
(0.0313661 -0.0056486 0)
(0.0325015 -0.00640481 0)
(0.0337692 -0.00729453 0)
(0.0351867 -0.00834869 0)
(0.0367737 -0.00960717 0)
(0.0385517 -0.011122 0)
(0.0405434 -0.0129615 0)
(0.0427711 -0.0152168 0)
(0.0452538 -0.0180099 0)
(0.0480008 -0.0215068 0)
(0.0509996 -0.0259343 0)
(0.054197 -0.0316093 0)
(0.0574499 -0.0389633 0)
(0.0604715 -0.0486564 0)
(0.0626026 -0.0614554 0)
(0.062247 -0.0793164 0)
(0.0597272 -0.103078 0)
(0.0177211 -0.144171 0)
(0.00460938 -0.0282941 0)
(0.012239 -0.0292921 0)
(0.0195123 -0.0269904 0)
(0.0262261 -0.0181156 0)
(0.0380093 0.00439626 0)
(0.0471034 0.0306554 0)
(0.0483475 0.0455526 0)
(0.0465393 0.0494216 0)
(0.0427077 0.0467098 0)
(0.0378366 0.0401413 0)
(0.0334185 0.0338383 0)
(0.0300541 0.0285534 0)
(0.0276907 0.023603 0)
(0.025954 0.0191612 0)
(0.0244607 0.015521 0)
(0.0231229 0.0126521 0)
(0.0219453 0.0103846 0)
(0.0209202 0.00856688 0)
(0.0200348 0.00708995 0)
(0.0192765 0.00587518 0)
(0.0186331 0.00486499 0)
(0.0180927 0.00401705 0)
(0.0176445 0.00329965 0)
(0.0172784 0.00268878 0)
(0.0169853 0.00216593 0)
(0.016757 0.0017168 0)
(0.016586 0.00133004 0)
(0.0164654 0.00099669 0)
(0.0163891 0.000709447 0)
(0.0163513 0.000462378 0)
(0.016347 0.00025055 0)
(0.0163714 6.97305e-05 0)
(0.0164205 -8.38824e-05 0)
(0.0164902 -0.000213546 0)
(0.016577 -0.000321973 0)
(0.0166774 -0.000411296 0)
(0.0167888 -0.000483555 0)
(0.0169086 -0.000540761 0)
(0.0170345 -0.000584733 0)
(0.0171647 -0.000617155 0)
(0.0172972 -0.000639527 0)
(0.0174307 -0.000653193 0)
(0.0175639 -0.000659366 0)
(0.0176958 -0.000659158 0)
(0.0178253 -0.000653579 0)
(0.0179519 -0.000643527 0)
(0.018075 -0.000629801 0)
(0.018194 -0.00061311 0)
(0.0183086 -0.000594077 0)
(0.0184187 -0.000573253 0)
(0.018524 -0.000551115 0)
(0.0186244 -0.000528075 0)
(0.01872 -0.000504486 0)
(0.0188107 -0.00048065 0)
(0.0188965 -0.00045682 0)
(0.0189777 -0.000433206 0)
(0.0190542 -0.000409981 0)
(0.0191263 -0.000387286 0)
(0.0191942 -0.000365232 0)
(0.0192578 -0.000343905 0)
(0.0193176 -0.000323369 0)
(0.0193736 -0.000303671 0)
(0.019426 -0.000284838 0)
(0.0194749 -0.000266885 0)
(0.0195207 -0.000249819 0)
(0.0195634 -0.000233634 0)
(0.0196033 -0.00021832 0)
(0.0196405 -0.000203859 0)
(0.0196751 -0.000190228 0)
(0.0197074 -0.000177402 0)
(0.0197374 -0.000165353 0)
(0.0197653 -0.000154049 0)
(0.0197913 -0.000143456 0)
(0.0198155 -0.000133543 0)
(0.019838 -0.000124277 0)
(0.0198589 -0.000115626 0)
(0.0198783 -0.000107555 0)
(0.0198963 -0.000100034 0)
(0.0199131 -9.3032e-05 0)
(0.0199287 -8.65192e-05 0)
(0.0199431 -8.04677e-05 0)
(0.0199566 -7.48499e-05 0)
(0.0199691 -6.96385e-05 0)
(0.0199807 -6.48102e-05 0)
(0.0199916 -6.03412e-05 0)
(0.0200016 -5.62094e-05 0)
(0.020011 -5.23937e-05 0)
(0.0200198 -4.88752e-05 0)
(0.0200279 -4.56351e-05 0)
(0.0200355 -4.26574e-05 0)
(0.0200427 -3.99256e-05 0)
(0.0200493 -3.74251e-05 0)
(0.0200556 -3.51426e-05 0)
(0.0200615 -3.30653e-05 0)
(0.020067 -3.11822e-05 0)
(0.0200723 -2.94831e-05 0)
(0.0200772 -2.79581e-05 0)
(0.0200819 -2.6599e-05 0)
(0.0200864 -2.53982e-05 0)
(0.0200907 -2.43492e-05 0)
(0.0200948 -2.34461e-05 0)
(0.0200988 -2.26838e-05 0)
(0.0201026 -2.20584e-05 0)
(0.0201064 -2.15665e-05 0)
(0.0201101 -2.12048e-05 0)
(0.0201137 -2.09719e-05 0)
(0.0201173 -2.0867e-05 0)
(0.0201209 -2.08893e-05 0)
(0.0201245 -2.10395e-05 0)
(0.0201282 -2.13189e-05 0)
(0.0201319 -2.17295e-05 0)
(0.0201357 -2.22736e-05 0)
(0.0201396 -2.29551e-05 0)
(0.0201436 -2.37782e-05 0)
(0.0201478 -2.47487e-05 0)
(0.0201521 -2.58727e-05 0)