/*--------------------------------*- C++ -*----------------------------------*\
  =========                 |
  \\      /  F ield         | OpenFOAM: The Open Source CFD Toolbox
   \\    /   O peration     | Website:  https://openfoam.org
    \\  /    A nd           | Version:  dev
     \\/     M anipulation  |
\*---------------------------------------------------------------------------*/
FoamFile
{
    version     2.0;
    format      ascii;
    class       surfaceScalarField;
    location    "14";
    object      phi;
}
// * * * * * * * * * * * * * * * * * * * * * * * * * * * * * * * * * * * * * //

dimensions      [1 0 -1 0 0 0 0];

internalField   nonuniform List<scalar> 
15760
(
9.94959e-07
0.00115762
-6.61397e-06
0.00116622
-1.86469e-05
0.00117064
0.00114793
-7.97444e-06
-2.7098e-06
0.00116033
-1.46602e-05
0.00117817
-3.68393e-05
0.00119282
0.00115136
-4.02718e-05
-3.47699e-06
0.00116381
-1.71162e-05
0.00119181
-4.54297e-05
0.00122113
0.00116922
-6.32933e-05
1.41858e-06
0.00116239
-8.06818e-06
0.0012013
-3.39287e-05
0.00124699
0.00120428
-6.8988e-05
1.42463e-05
0.00114815
1.6728e-05
0.00119882
5.33983e-06
0.00125838
0.00124925
-3.96251e-05
3.52991e-05
0.00111285
5.87818e-05
0.00117533
7.61559e-05
0.00124101
0.00127718
4.82238e-05
6.17527e-05
0.00105109
0.000114518
0.00112257
0.000172172
0.00118335
0.00124659
0.000202761
8.68852e-05
0.00096421
0.000170298
0.00103916
0.000265807
0.00108784
0.00115105
0.000361342
0.000103185
0.000861025
0.000207099
0.000935243
0.000325788
0.000969155
0.00101698
0.000459866
0.000108209
0.000752816
0.000217296
0.000826155
0.000339732
0.000846721
0.000870414
0.000486295
0.000104035
0.000648781
0.000206472
0.000723718
0.000316051
0.000737142
0.000738145
0.00044832
9.49371e-05
0.000553844
0.000185191
0.000633465
0.000275903
0.00064643
0.000635016
0.000379032
8.43207e-05
0.000469524
0.00016147
0.000556316
0.000235622
0.000572277
0.000557204
0.000313434
7.15754e-05
0.000397948
0.000137068
0.000490824
0.000199439
0.000509906
0.000495477
0.000261167
5.51913e-05
0.000342757
0.000110847
0.000435168
0.000165342
0.000455411
0.000442819
0.000218001
3.85922e-05
0.000304164
8.52979e-05
0.000388463
0.000133621
0.000407088
0.000396157
0.000180284
2.66941e-05
0.00027747
6.52074e-05
0.000349949
0.000107273
0.000365022
0.000355362
0.000148068
2.04601e-05
0.00025701
5.20853e-05
0.000318324
8.76016e-05
0.000329505
0.00032083
0.000122133
1.76835e-05
0.000239326
4.3849e-05
0.000292159
7.32535e-05
0.000300101
0.000292206
0.000101878
1.60417e-05
0.000223285
3.79447e-05
0.000270256
6.22471e-05
0.000275799
0.00026857
8.58831e-05
1.44929e-05
0.000208792
3.30286e-05
0.00025172
5.32824e-05
0.000255545
0.000248957
7.28948e-05
1.28984e-05
0.000195893
2.87018e-05
0.000235917
4.57261e-05
0.000238521
0.000232584
6.20995e-05
1.13471e-05
0.000184546
2.48739e-05
0.00022239
3.92548e-05
0.00022414
0.000218848
5.29906e-05
9.89922e-06
0.000174647
2.149e-05
0.000210799
3.36608e-05
0.000211969
0.000207287
4.52219e-05
8.57435e-06
0.000166073
1.84934e-05
0.00020088
2.87906e-05
0.000201672
0.000197543
3.85348e-05
7.3739e-06
0.000158699
1.58326e-05
0.000192421
2.45251e-05
0.000192979
0.000189338
3.27303e-05
6.29145e-06
0.000152407
1.3464e-05
0.000185249
2.07696e-05
0.000185674
0.000182454
2.76533e-05
5.31697e-06
0.00014709
1.13491e-05
0.000179217
1.74467e-05
0.000179576
0.000176719
2.31821e-05
4.43948e-06
0.000142651
9.45551e-06
0.000174201
1.4493e-05
0.000174539
0.000171991
1.92207e-05
3.64765e-06
0.000139003
7.75446e-06
0.000170094
1.18565e-05
0.000170436
0.000168154
1.56933e-05
2.93307e-06
0.00013607
6.22444e-06
0.000166802
9.49693e-06
0.000167164
0.000165111
1.25405e-05
2.27745e-06
0.000133793
4.83969e-06
0.00016424
7.37745e-06
0.000164626
0.000162774
9.71412e-06
1.69383e-06
0.000132099
3.60536e-06
0.000162329
5.484e-06
0.000162748
0.000161075
7.18266e-06
1.175e-06
0.000130924
2.50834e-06
0.000160995
3.7955e-06
0.00016146
0.000159957
4.91379e-06
7.02167e-07
0.000130222
1.51458e-06
0.000160183
2.26909e-06
0.000160706
0.000159362
2.86446e-06
2.69411e-07
0.000129952
6.07133e-07
0.000159845
8.81922e-07
0.000160431
0.000159233
1.01023e-06
-1.25416e-07
0.000130078
-2.1686e-07
0.000159937
-3.68879e-07
0.000160583
0.00015952
-6.55558e-07
-4.7637e-07
0.000130554
-9.50088e-07
0.00016041
-1.48177e-06
0.000161115
0.000160176
-2.13797e-06
-7.81073e-07
0.000131335
-1.59098e-06
0.00016122
-2.45913e-06
0.000161983
0.000161161
-3.44419e-06
-1.04898e-06
0.000132384
-2.1534e-06
0.000162325
-3.3158e-06
0.000163145
0.000162434
-4.58816e-06
-1.28313e-06
0.000133667
-2.64379e-06
0.000163685
-4.06158e-06
0.000164563
0.000163955
-5.58278e-06
-1.48526e-06
0.000135152
-3.06633e-06
0.000165266
-4.70326e-06
0.0001662
0.000165689
-6.43738e-06
-1.65718e-06
0.00013681
-3.42507e-06
0.000167034
-5.24733e-06
0.000168022
0.000167602
-7.16071e-06
-1.80077e-06
0.00013861
-3.72418e-06
0.000168958
-5.70022e-06
0.000169998
0.000169663
-7.76126e-06
-1.91787e-06
0.000140528
-3.96774e-06
0.000171008
-6.06811e-06
0.000172099
0.000171842
-8.24721e-06
-2.01029e-06
0.000142538
-4.15962e-06
0.000173157
-6.35689e-06
0.000174296
0.000174112
-8.62675e-06
-2.07987e-06
0.000144618
-4.30371e-06
0.000175381
-6.57274e-06
0.000176565
0.000176448
-8.9083e-06
-2.12855e-06
0.000146747
-4.40405e-06
0.000177656
-6.72198e-06
0.000178883
0.000178826
-9.10039e-06
-2.1582e-06
0.000148905
-4.46469e-06
0.000179963
-6.81081e-06
0.000181229
0.000181227
-9.21142e-06
-2.17067e-06
0.000151076
-4.48963e-06
0.000182282
-6.84525e-06
0.000183585
0.000183631
-9.24954e-06
-2.16776e-06
0.000153243
-4.48266e-06
0.000184597
-6.83118e-06
0.000185933
0.000186023
-9.22275e-06
-2.15122e-06
0.000155395
-4.4475e-06
0.000186893
-6.77436e-06
0.00018826
0.000188387
-9.13889e-06
-2.12279e-06
0.000157517
-4.38776e-06
0.000189158
-6.68033e-06
0.000190553
0.000190712
-9.0054e-06
-2.08413e-06
0.000159602
-4.30683e-06
0.00019138
-6.55427e-06
0.0001928
0.000192987
-8.82933e-06
-2.03673e-06
0.000161638
-4.20793e-06
0.000193552
-6.40109e-06
0.000194993
0.000195203
-8.61731e-06
-1.98206e-06
0.00016362
-4.09404e-06
0.000195664
-6.22537e-06
0.000197125
0.000197354
-8.3755e-06
-1.92144e-06
0.000165542
-3.96796e-06
0.00019771
-6.03135e-06
0.000199188
0.000199432
-8.10963e-06
-1.85611e-06
0.000167398
-3.83224e-06
0.000199686
-5.8229e-06
0.000201179
0.000201434
-7.82493e-06
-1.78719e-06
0.000169185
-3.68919e-06
0.000201588
-5.60356e-06
0.000203093
0.000203357
-7.52615e-06
-1.7157e-06
0.000170901
-3.5409e-06
0.000203413
-5.37651e-06
0.000204929
0.000205197
-7.2175e-06
-1.64252e-06
0.000172543
-3.38922e-06
0.00020516
-5.14456e-06
0.000206684
0.000206956
-6.90277e-06
-1.56846e-06
0.000174112
-3.23581e-06
0.000206828
-4.9102e-06
0.000208358
0.000208631
-6.58527e-06
-1.49421e-06
0.000175606
-3.0821e-06
0.000208415
-4.67559e-06
0.000209952
0.000210223
-6.26788e-06
-1.42039e-06
0.000177026
-2.92931e-06
0.000209924
-4.44259e-06
0.000211465
0.000211734
-5.95307e-06
-1.34747e-06
0.000178374
-2.77852e-06
0.000211355
-4.21279e-06
0.000212899
0.000213164
-5.64292e-06
-1.27591e-06
0.00017965
-2.63059e-06
0.00021271
-3.98751e-06
0.000214256
0.000214515
-5.33916e-06
-1.20607e-06
0.000180856
-2.48625e-06
0.00021399
-3.76783e-06
0.000215538
0.000215791
-5.04325e-06
-1.13822e-06
0.000181994
-2.34609e-06
0.000215198
-3.55463e-06
0.000216746
0.000216992
-4.7563e-06
-1.0726e-06
0.000183066
-2.21056e-06
0.000216336
-3.34861e-06
0.000217884
0.000218123
-4.47922e-06
-1.00937e-06
0.000184076
-2.08003e-06
0.000217407
-3.15026e-06
0.000218955
0.000219185
-4.21266e-06
-9.48672e-07
0.000185025
-1.95474e-06
0.000218413
-2.95997e-06
0.00021996
0.000220183
-3.9571e-06
-8.90577e-07
0.000185915
-1.83487e-06
0.000219357
-2.77796e-06
0.000220903
0.000221117
-3.71282e-06
-8.35139e-07
0.00018675
-1.72051e-06
0.000220242
-2.60439e-06
0.000221787
0.000221993
-3.47999e-06
-7.82374e-07
0.000187533
-1.61167e-06
0.000221072
-2.43929e-06
0.000222614
0.000222812
-3.25864e-06
-7.32272e-07
0.000188265
-1.50837e-06
0.000221848
-2.2826e-06
0.000223389
0.000223578
-3.04867e-06
-6.84807e-07
0.00018895
-1.41052e-06
0.000222574
-2.13423e-06
0.000224112
0.000224294
-2.84994e-06
-6.39941e-07
0.00018959
-1.31801e-06
0.000223252
-1.99401e-06
0.000224788
0.000224962
-2.66221e-06
-5.97591e-07
0.000190187
-1.23072e-06
0.000223885
-1.86175e-06
0.000225419
0.000225586
-2.48518e-06
-5.57693e-07
0.000190745
-1.14851e-06
0.000224476
-1.7372e-06
0.000226008
0.000226167
-2.31855e-06
-5.20161e-07
0.000191265
-1.07119e-06
0.000225027
-1.6201e-06
0.000226557
0.000226709
-2.16192e-06
-4.84917e-07
0.00019175
-9.98586e-07
0.00022554
-1.51015e-06
0.000227069
0.000227214
-2.01491e-06
-4.51862e-07
0.000192202
-9.30501e-07
0.000226019
-1.40707e-06
0.000227545
0.000227684
-1.87713e-06
-4.209e-07
0.000192623
-8.66737e-07
0.000226465
-1.31055e-06
0.000227989
0.000228121
-1.74816e-06
-3.91936e-07
0.000193015
-8.07092e-07
0.00022688
-1.22029e-06
0.000228402
0.000228529
-1.62757e-06
-3.64875e-07
0.000193379
-7.51372e-07
0.000227266
-1.13597e-06
0.000228787
0.000228908
-1.51496e-06
-3.39618e-07
0.000193719
-6.99381e-07
0.000227626
-1.0573e-06
0.000229145
0.00022926
-1.4099e-06
-3.16076e-07
0.000194035
-6.50913e-07
0.000227961
-9.83984e-07
0.000229478
0.000229588
-1.31201e-06
-2.94147e-07
0.000194329
-6.05781e-07
0.000228273
-9.15723e-07
0.000229788
0.000229893
-1.22089e-06
-2.73752e-07
0.000194603
-5.63804e-07
0.000228563
-8.52237e-07
0.000230076
0.000230177
-1.13616e-06
-2.54802e-07
0.000194858
-5.24803e-07
0.000228833
-7.93255e-07
0.000230345
0.000230442
-1.05746e-06
-2.37211e-07
0.000195095
-4.88607e-07
0.000229084
-7.38523e-07
0.000230594
0.000230687
-9.84434e-07
-2.20902e-07
0.000195316
-4.55052e-07
0.000229318
-6.87782e-07
0.000230827
0.000230916
-9.16757e-07
-2.05799e-07
0.000195522
-4.23981e-07
0.000229536
-6.40818e-07
0.000231044
0.00023113
-8.54107e-07
-1.91827e-07
0.000195714
-3.95254e-07
0.00022974
-5.97391e-07
0.000231246
0.000231329
-7.96193e-07
-1.78934e-07
0.000195892
-3.68724e-07
0.00022993
-5.57293e-07
0.000231435
0.000231514
-7.42722e-07
-1.67037e-07
0.000196059
-3.44271e-07
0.000230107
-5.20335e-07
0.000231611
0.000231687
-6.93433e-07
-1.56093e-07
0.000196216
-3.2176e-07
0.000230273
-4.86319e-07
0.000231775
0.000231849
-6.48088e-07
-1.46034e-07
0.000196362
-3.01086e-07
0.000230428
-4.55081e-07
0.000231929
0.000232
-6.0644e-07
-1.36813e-07
0.000196498
-2.82147e-07
0.000230573
-4.26455e-07
0.000232074
0.000232142
-5.68277e-07
-1.28386e-07
0.000196627
-2.64833e-07
0.000230709
-4.00295e-07
0.000232209
0.000232275
-5.33407e-07
-1.20703e-07
0.000196747
-2.49058e-07
0.000230838
-3.7646e-07
0.000232337
0.0002324
-5.01646e-07
-1.13731e-07
0.000196861
-2.34734e-07
0.000230959
-3.54827e-07
0.000232457
0.000232518
-4.72813e-07
-1.07421e-07
0.000196969
-2.21795e-07
0.000231073
-3.35276e-07
0.00023257
0.00023263
-4.46763e-07
-1.01751e-07
0.00019707
-2.10166e-07
0.000231182
-3.17708e-07
0.000232678
0.000232735
-4.23352e-07
-9.66875e-08
0.000197167
-1.9978e-07
0.000231285
-3.02027e-07
0.00023278
0.000232836
-4.02444e-07
-9.21917e-08
0.000197259
-1.90588e-07
0.000231383
-2.88138e-07
0.000232877
0.000232932
-3.83939e-07
-8.82561e-08
0.000197347
-1.82528e-07
0.000231477
-2.7597e-07
0.000232971
0.000233023
-3.67728e-07
-8.48501e-08
0.000197432
-1.75566e-07
0.000231568
-2.65458e-07
0.000233061
0.000233112
-3.53722e-07
-8.19559e-08
0.000197514
-1.69662e-07
0.000231656
-2.56541e-07
0.000233148
0.000233197
-3.41845e-07
-7.95587e-08
0.000197594
-1.64784e-07
0.000231741
-2.49176e-07
0.000233232
0.00023328
-3.32034e-07
-7.7643e-08
0.000197671
-1.60908e-07
0.000231824
-2.43326e-07
0.000233315
0.000233361
-3.24239e-07
-7.62061e-08
0.000197748
-1.58006e-07
0.000231906
-2.38953e-07
0.000233395
0.00023344
-3.18418e-07
-7.5232e-08
0.000197823
-1.56075e-07
0.000231987
-2.36044e-07
0.000233475
0.000233519
-3.14536e-07
-7.4723e-08
0.000197898
-1.55101e-07
0.000232067
-2.34576e-07
0.000233555
0.000233597
-3.12583e-07
-7.4677e-08
0.000197972
-1.55078e-07
0.000232148
-2.34556e-07
0.000233634
0.000233675
-3.12549e-07
-7.50885e-08
0.000198047
-1.56021e-07
0.000232229
-2.3598e-07
0.000233714
0.000233753
-3.14442e-07
-7.59674e-08
0.000198123
-1.57918e-07
0.00023231
-2.38855e-07
0.000233795
0.000233833
-3.1828e-07
-7.73162e-08
0.000198201
-1.60801e-07
0.000232394
-2.43211e-07
0.000233878
0.000233913
-3.2408e-07
-7.915e-08
0.00019828
-1.64679e-07
0.000232479
-2.49074e-07
0.000233962
0.000233996
-3.3189e-07
-8.14744e-08
0.000198361
-1.69577e-07
0.000232568
-2.56483e-07
0.000234049
0.000234082
-3.41764e-07
-8.43061e-08
0.000198445
-1.75533e-07
0.000232659
-2.65494e-07
0.000234139
0.00023417
-3.53765e-07
-8.76743e-08
0.000198533
-1.82585e-07
0.000232754
-2.76168e-07
0.000234233
0.000234262
-3.67972e-07
-9.15943e-08
0.000198625
-1.9079e-07
0.000232853
-2.88565e-07
0.00023433
0.000234358
-3.84481e-07
-9.60895e-08
0.000198721
-2.0019e-07
0.000232957
-3.02773e-07
0.000234433
0.000234458
-4.03403e-07
-1.01189e-07
0.000198822
-2.1085e-07
0.000233067
-3.18884e-07
0.000234541
0.000234564
-4.24852e-07
-1.06927e-07
0.000198929
-2.22841e-07
0.000233183
-3.37001e-07
0.000234655
0.000234676
-4.48983e-07
-1.13345e-07
0.000199042
-2.36239e-07
0.000233305
-3.57246e-07
0.000234776
0.000234795
-4.75941e-07
-1.20482e-07
0.000199163
-2.51132e-07
0.000233436
-3.79757e-07
0.000234905
0.000234921
-5.05909e-07
-1.28388e-07
0.000199291
-2.67623e-07
0.000233575
-4.0467e-07
0.000235042
0.000235055
-5.39082e-07
-1.37116e-07
0.000199428
-2.85815e-07
0.000233724
-4.32157e-07
0.000235188
0.000235199
-5.75678e-07
-1.46719e-07
0.000199575
-3.0583e-07
0.000233883
-4.62398e-07
0.000235345
0.000235352
-6.15936e-07
-1.57261e-07
0.000199732
-3.27808e-07
0.000234054
-4.95592e-07
0.000235512
0.000235517
-6.60123e-07
-1.68825e-07
0.000199901
-3.51881e-07
0.000234237
-5.31957e-07
0.000235693
0.000235694
-7.08533e-07
-1.81472e-07
0.000200082
-3.78221e-07
0.000234433
-5.71737e-07
0.000235886
0.000235883
-7.61483e-07
-1.953e-07
0.000200278
-4.06996e-07
0.000234645
-6.15198e-07
0.000236094
0.000236087
-8.19328e-07
-2.10394e-07
0.000200488
-4.38407e-07
0.000234873
-6.62628e-07
0.000236318
0.000236307
-8.82453e-07
-2.26859e-07
0.000200715
-4.72665e-07
0.000235119
-7.14351e-07
0.00023656
0.000236544
-9.5129e-07
-2.44808e-07
0.00020096
-5.10001e-07
0.000235384
-7.70722e-07
0.000236821
0.0002368
-1.0263e-06
-2.64362e-07
0.000201224
-5.50671e-07
0.00023567
-8.32117e-07
0.000237102
0.000237076
-1.10799e-06
-2.85658e-07
0.00020151
-5.94954e-07
0.00023598
-8.98965e-07
0.000237406
0.000237374
-1.19693e-06
-3.08851e-07
0.000201819
-6.43162e-07
0.000236314
-9.71726e-07
0.000237735
0.000237696
-1.29371e-06
-3.34101e-07
0.000202153
-6.95631e-07
0.000236676
-1.0509e-06
0.00023809
0.000238044
-1.39903e-06
-3.61586e-07
0.000202514
-7.52733e-07
0.000237067
-1.13705e-06
0.000238474
0.00023842
-1.5136e-06
-3.9151e-07
0.000202906
-8.14868e-07
0.00023749
-1.23078e-06
0.00023889
0.000238828
-1.63824e-06
-4.24076e-07
0.00020333
-8.82487e-07
0.000237949
-1.33276e-06
0.000239341
0.000239269
-1.77384e-06
-4.59538e-07
0.000203789
-9.56077e-07
0.000238445
-1.44374e-06
0.000239828
0.000239746
-1.92138e-06
-4.98152e-07
0.000204287
-1.03619e-06
0.000238983
-1.56452e-06
0.000240357
0.000240264
-2.08192e-06
-5.40218e-07
0.000204828
-1.12341e-06
0.000239566
-1.696e-06
0.000240929
0.000240824
-2.25664e-06
-5.86047e-07
0.000205414
-1.2184e-06
0.000240199
-1.83915e-06
0.00024155
0.000241432
-2.44684e-06
-6.36e-07
0.00020605
-1.32188e-06
0.000240885
-1.99506e-06
0.000242223
0.000242091
-2.65395e-06
-6.90465e-07
0.00020674
-1.43466e-06
0.000241629
-2.16494e-06
0.000242953
0.000242806
-2.87957e-06
-7.49874e-07
0.00020749
-1.55763e-06
0.000242436
-2.35011e-06
0.000243746
0.000243581
-3.12542e-06
-8.14725e-07
0.000208305
-1.69178e-06
0.000243314
-2.55202e-06
0.000244606
0.000244422
-3.39346e-06
-8.85544e-07
0.00020919
-1.83818e-06
0.000244266
-2.77234e-06
0.00024554
0.000245336
-3.68582e-06
-9.62944e-07
0.000210153
-1.99807e-06
0.000245301
-3.01285e-06
0.000246555
0.000246328
-4.0049e-06
-1.04759e-06
0.000211201
-2.17281e-06
0.000246427
-3.2756e-06
0.000247658
0.000247406
-4.35335e-06
-1.14024e-06
0.000212341
-2.36392e-06
0.00024765
-3.56283e-06
0.000248857
0.000248577
-4.73412e-06
-1.24173e-06
0.000213583
-2.57309e-06
0.000248982
-3.87706e-06
0.000250161
0.00024985
-5.15052e-06
-1.35301e-06
0.000214936
-2.80223e-06
0.000250431
-4.22113e-06
0.00025158
0.000251236
-5.60626e-06
-1.47514e-06
0.000216411
-3.05348e-06
0.000252009
-4.59818e-06
0.000253124
0.000252743
-6.10547e-06
-1.60934e-06
0.00021802
-3.32926e-06
0.000253729
-5.01181e-06
0.000254807
0.000254384
-6.65283e-06
-1.75696e-06
0.000219777
-3.63231e-06
0.000255604
-5.46605e-06
0.000256641
0.000256171
-7.2536e-06
-1.91956e-06
0.000221697
-3.96572e-06
0.000257651
-5.96547e-06
0.00025864
0.00025812
-7.91374e-06
-2.09893e-06
0.000223796
-4.33303e-06
0.000259885
-6.51526e-06
0.000260823
0.000260244
-8.63999e-06
-2.29709e-06
0.000226093
-4.73827e-06
0.000262326
-7.12134e-06
0.000263206
0.000262563
-9.44002e-06
-2.51637e-06
0.000228609
-5.18603e-06
0.000264995
-7.79045e-06
0.00026581
0.000265095
-1.03226e-05
-2.75945e-06
0.000231369
-5.68161e-06
0.000267918
-8.53032e-06
0.000268659
0.000267863
-1.12977e-05
-3.02943e-06
0.000234398
-6.2311e-06
0.000271119
-9.34986e-06
0.000271778
0.000270889
-1.23768e-05
-3.32991e-06
0.000237728
-6.84155e-06
0.000274631
-1.02594e-05
0.000275195
0.000274203
-1.35731e-05
-3.66509e-06
0.000241393
-7.52117e-06
0.000278487
-1.12707e-05
0.000278945
0.000277835
-1.49021e-05
-4.03989e-06
0.000245433
-8.27955e-06
0.000282727
-1.23979e-05
0.000283063
0.000281818
-1.63815e-05
-4.46007e-06
0.000249893
-9.12792e-06
0.000287395
-1.36571e-05
0.000287592
0.000286193
-1.80322e-05
-4.93248e-06
0.000254825
-1.00795e-05
0.000292542
-1.50675e-05
0.00029258
0.000291004
-1.98784e-05
-5.46525e-06
0.000260291
-1.115e-05
0.000298226
-1.66516e-05
0.000298082
0.000296302
-2.19489e-05
-6.06808e-06
0.000266359
-1.23582e-05
0.000304516
-1.84363e-05
0.00030416
0.000302143
-2.42776e-05
-6.75264e-06
0.000273111
-1.37263e-05
0.00031149
-2.04538e-05
0.000310887
0.000308594
-2.69052e-05
-7.53306e-06
0.000280644
-1.52814e-05
0.000319239
-2.27424e-05
0.000318348
0.000315732
-2.988e-05
-8.4265e-06
0.000289071
-1.70564e-05
0.000327868
-2.53489e-05
0.000326641
0.000323643
-3.32605e-05
-9.45404e-06
0.000298525
-1.90911e-05
0.000337505
-2.83302e-05
0.00033588
0.000332431
-3.71174e-05
-1.06417e-05
0.000309167
-2.14352e-05
0.000348299
-3.17561e-05
0.000346201
0.000342212
-4.15374e-05
-1.20218e-05
0.000321188
-2.41498e-05
0.000360427
-3.57131e-05
0.000357764
0.000353125
-4.66267e-05
-1.3636e-05
0.000334824
-2.7312e-05
0.000374103
-4.03088e-05
0.000370761
0.000365334
-5.25174e-05
-1.55333e-05
0.000350358
-3.10189e-05
0.000389589
-4.56794e-05
0.000385422
0.000379029
-5.93742e-05
-1.77883e-05
0.000368146
-3.53963e-05
0.000407197
-5.19972e-05
0.000402023
0.000394438
-6.7406e-05
-2.04674e-05
0.000388613
-4.0604e-05
0.000427333
-5.94862e-05
0.000420905
0.000411828
-7.68764e-05
-2.37268e-05
0.00041234
-4.68563e-05
0.000450463
-6.84335e-05
0.000442482
0.000431524
-8.81296e-05
-2.76414e-05
0.000439981
-5.44333e-05
0.000477255
-7.92255e-05
0.000467274
0.000453902
-0.000101604
-3.2534e-05
0.000472515
-6.37141e-05
0.000508435
-9.23655e-05
0.000495925
0.000479427
-0.000117891
-3.85366e-05
0.000511052
-7.52286e-05
0.000545127
-0.000108554
0.000529251
0.000508628
-0.000137755
-4.6218e-05
0.00055727
-8.96917e-05
0.0005886
-0.000128732
0.000568292
0.000542152
-0.000162257
-5.59788e-05
0.000613249
-0.000108161
0.000640782
-0.000154245
0.000614376
0.000580713
-0.000192806
-6.8787e-05
0.000682036
-0.000132107
0.000704103
-0.000186978
0.000669247
0.000625133
-0.000231398
-8.58649e-05
0.000767901
-0.000163832
0.00078207
-0.000229686
0.0007351
0.000676215
-0.000280767
-0.000108726
0.000876627
-0.000206432
0.000879777
-0.0002865
0.000815167
0.00073466
-0.000344944
-0.000141347
0.00101797
-0.000265584
0.00100401
-0.000363404
0.000912987
0.00080065
-0.000429393
-0.000185005
0.00120298
-0.000347451
0.00116646
-0.000471016
0.00103655
0.000873347
-0.000543713
-0.000246276
0.00144926
-0.000464112
0.00138429
-0.000621848
0.00119429
0.000949553
-0.000698055
-0.000349353
0.00179861
-0.000639276
0.00167422
-0.0008525
0.00140751
0.00102747
-0.000930413
-0.000403087
0.0022017
-0.000808452
0.00207958
-0.00114852
0.00174759
0.00112461
-0.00124567
-0.000771316
-0.00141
-0.00179174
-0.00196015
0.000130683
-0.000138657
0.000276265
-0.000185855
0.000431085
-0.000218113
0.000581536
-0.000219439
0.000722401
-0.000180491
0.000862494
-9.18686e-05
0.000963718
0.000101537
0.000972502
0.000352557
0.00090804
0.000524326
0.000804135
0.0005902
0.000687849
0.000564605
0.000588507
0.000478376
0.000514296
0.000387646
0.000456464
0.000319
0.000408282
0.000266183
0.000366641
0.000221925
0.000330889
0.00018382
0.000300791
0.000152231
0.000275744
0.000126925
0.000254938
0.00010669
0.000237588
9.02449e-05
0.000223034
7.66537e-05
0.000210758
6.5266e-05
0.000200371
5.56094e-05
0.000191576
4.733e-05
0.000184145
4.0161e-05
0.0001779
3.38984e-05
0.000172696
2.83857e-05
0.000168416
2.35007e-05
0.000164962
1.9148e-05
0.000162249
1.52534e-05
0.000160204
1.17586e-05
0.000158768
8.61907e-06
0.000157888
5.79402e-06
0.000157509
3.24331e-06
0.000157578
9.41078e-07
0.000158047
-1.12453e-06
0.000158873
-2.9639e-06
0.000160017
-4.58791e-06
0.000161438
-6.00983e-06
0.0001631
-7.24435e-06
0.000164966
-8.3033e-06
0.000167002
-9.19735e-06
0.000169178
-9.9369e-06
0.000171463
-1.05323e-05
0.00017383
-1.09942e-05
0.000176255
-1.13331e-05
0.000178715
-1.15599e-05
0.000181188
-1.1685e-05
0.000183658
-1.17188e-05
0.000186106
-1.16715e-05
0.000188521
-1.15533e-05
0.000190889
-1.13733e-05
0.0001932
-1.11406e-05
0.000195446
-1.08635e-05
0.00019762
-1.05499e-05
0.000199718
-1.02069e-05
0.000201734
-9.84124e-06
0.000203667
-9.45872e-06
0.000205514
-9.06469e-06
0.000207275
-8.66385e-06
0.00020895
-8.26032e-06
0.00021054
-7.85767e-06
0.000212045
-7.45893e-06
0.000213469
-7.06666e-06
0.000214813
-6.68301e-06
0.00021608
-6.30971e-06
0.000217271
-5.94812e-06
0.000218391
-5.59931e-06
0.000219443
-5.26407e-06
0.000220429
-4.94291e-06
0.000221352
-4.63621e-06
0.000222216
-4.34408e-06
0.000223024
-4.06653e-06
0.000223779
-3.80344e-06
0.000224483
-3.55456e-06
0.000225141
-3.3196e-06
0.000225754
-3.09816e-06
0.000226325
-2.88979e-06
0.000226857
-2.69403e-06
0.000227353
-2.51038e-06
0.000227814
-2.3383e-06
0.000228243
-2.17728e-06
0.000228642
-2.02679e-06
0.000229013
-1.88628e-06
0.000229359
-1.75525e-06
0.00022968
-1.63319e-06
0.000229979
-1.51959e-06
0.000230256
-1.41398e-06
0.000230515
-1.31591e-06
0.000230755
-1.22492e-06
0.000230979
-1.14062e-06
0.000231188
-1.06259e-06
0.000231382
-9.90468e-07
0.000231563
-9.23894e-07
0.000231732
-8.6254e-07
0.00023189
-8.06086e-07
0.000232038
-7.54251e-07
0.000232177
-7.06761e-07
0.000232307
-6.63366e-07
0.000232429
-6.23841e-07
0.000232544
-5.87969e-07
0.000232653
-5.55561e-07
0.000232756
-5.26428e-07
0.000232854
-5.00426e-07
0.000232947
-4.77406e-07
0.000233037
-4.57235e-07
0.000233123
-4.39817e-07
0.000233206
-4.25045e-07
0.000233287
-4.12844e-07
0.000233366
-4.03144e-07
0.000233443
-3.95902e-07
0.00023352
-3.91074e-07
0.000233596
-3.88641e-07
0.000233672
-3.886e-07
0.000233748
-3.90952e-07
0.000233826
-3.95715e-07
0.000233905
-4.02924e-07
0.000233985
-4.1263e-07
0.000234069
-4.24896e-07
0.000234155
-4.39807e-07
0.000234244
-4.57467e-07
0.000234338
-4.77984e-07
0.000234436
-5.0149e-07
0.000234539
-5.28145e-07
0.000234648
-5.58124e-07
0.000234764
-5.91625e-07
0.000234887
-6.2886e-07
0.000235018
-6.70078e-07
0.000235158
-7.15542e-07
0.000235307
-7.65556e-07
0.000235468
-8.2045e-07
0.00023564
-8.8058e-07
0.000235824
-9.46348e-07
0.000236023
-1.01819e-06
0.000236237
-1.09659e-06
0.000236468
-1.18207e-06
0.000236717
-1.27521e-06
0.000236986
-1.37665e-06
0.000237276
-1.48706e-06
0.000237589
-1.60721e-06
0.000237928
-1.73792e-06
0.000238295
-1.88012e-06
0.000238691
-2.03479e-06
0.000239121
-2.20304e-06
0.000239585
-2.38605e-06
0.000240088
-2.58517e-06
0.000240634
-2.80185e-06
0.000241225
-3.03766e-06
0.000241865
-3.2944e-06
0.000242559
-3.574e-06
0.000243313
-3.8786e-06
0.00024413
-4.21061e-06
0.000245017
-4.57264e-06
0.000245979
-4.96762e-06
0.000247025
-5.3988e-06
0.00024816
-5.86981e-06
0.000249395
-6.38468e-06
0.000250736
-6.94793e-06
0.000252195
-7.56462e-06
0.000253783
-8.24044e-06
0.000255511
-8.98177e-06
0.000257393
-9.79585e-06
0.000259444
-1.06909e-05
0.00026168
-1.16761e-05
0.00026412
-1.2762e-05
0.000266783
-1.39607e-05
0.000269692
-1.52861e-05
0.000272873
-1.67539e-05
0.000276353
-1.83826e-05
0.000280165
-2.01933e-05
0.000284343
-2.22107e-05
0.000288929
-2.44637e-05
0.000293966
-2.69862e-05
0.000299506
-2.9818e-05
0.000305608
-3.30066e-05
0.000312336
-3.66083e-05
0.000319766
-4.06907e-05
0.000327984
-4.53353e-05
0.000337088
-5.06407e-05
0.000347189
-5.67277e-05
0.000358416
-6.37445e-05
0.000370916
-7.18746e-05
0.000384857
-8.13468e-05
0.00040043
-9.24495e-05
0.000417846
-0.000105546
0.000437348
-0.000121106
0.00045918
-0.000139723
0.000483612
-0.000162187
0.000510863
-0.000189508
0.000541104
-0.000223047
0.000574285
-0.00026458
0.000610027
-0.00031651
0.000647111
-0.000382029
0.000683126
-0.000465408
0.000711821
-0.000572408
0.000723679
-0.000709913
0.000681331
-0.000888066
0.000542429
-0.00110676
-0.00141772
9.7589e-05
-0.000236246
0.00020407
-0.000292336
0.00031889
-0.000332932
0.00043301
-0.00033356
0.00052904
-0.000276521
0.000598058
-0.000160886
0.000660567
3.9029e-05
0.000690441
0.000322684
0.000674189
0.000540577
0.00062946
0.000634929
0.000564392
0.000629674
0.000496693
0.000546075
0.000441281
0.000443059
0.000395824
0.000364457
0.000357331
0.000304676
0.000324686
0.000254571
0.000297207
0.000211298
0.000274031
0.000175407
0.000254391
0.000146566
0.000237699
0.000123381
0.000223468
0.000104476
0.000211295
8.88272e-05
0.000200863
7.56981e-05
0.000191926
6.45463e-05
0.000184289
5.49667e-05
0.000177797
4.66534e-05
0.000172322
3.93736e-05
0.000167759
3.29486e-05
0.00016402
2.72399e-05
0.000161028
2.21395e-05
0.000158718
1.75637e-05
0.00015703
1.34464e-05
0.000155914
9.7352e-06
0.000155323
6.38536e-06
0.000155207
3.35878e-06
0.000155519
6.29437e-07
0.000156213
-1.8192e-06
0.000157251
-4.00169e-06
0.000158593
-5.9301e-06
0.000160202
-7.61846e-06
0.00016204
-9.08189e-06
0.000164071
-1.03343e-05
0.000166262
-1.13883e-05
0.000168581
-1.22563e-05
0.000170999
-1.29508e-05
0.00017349
-1.34844e-05
0.000176027
-1.38702e-05
0.000178588
-1.4121e-05
0.000181153
-1.42497e-05
0.000183703
-1.42691e-05
0.000186223
-1.41917e-05
0.000188699
-1.40296e-05
0.00019112
-1.37942e-05
0.000193476
-1.34964e-05
0.000195759
-1.31464e-05
0.000197963
-1.27538e-05
0.000200083
-1.23272e-05
0.000202117
-1.18745e-05
0.000204061
-1.1403e-05
0.000205915
-1.09189e-05
0.000207679
-1.04278e-05
0.000209353
-9.93465e-06
0.000210939
-9.44365e-06
0.000212439
-8.95839e-06
0.000213854
-8.48187e-06
0.000215187
-8.01656e-06
0.000216442
-7.56446e-06
0.000217621
-7.12715e-06
0.000218728
-6.70581e-06
0.000219765
-6.30132e-06
0.000220736
-5.91426e-06
0.000221645
-5.54496e-06
0.000222495
-5.19353e-06
0.000223288
-4.85992e-06
0.000224028
-4.54392e-06
0.000224719
-4.24523e-06
0.000225363
-3.96341e-06
0.000225963
-3.69796e-06
0.000226521
-3.44834e-06
0.000227041
-3.21395e-06
0.000227525
-2.99416e-06
0.000227975
-2.78833e-06
0.000228393
-2.5958e-06
0.000228783
-2.41592e-06
0.000229144
-2.24805e-06
0.000229481
-2.09156e-06
0.000229793
-1.94581e-06
0.000230084
-1.81021e-06
0.000230354
-1.68419e-06
0.000230605
-1.56718e-06
0.000230839
-1.45866e-06
0.000231057
-1.35813e-06
0.000231259
-1.2651e-06
0.000231448
-1.17913e-06
0.000231624
-1.09978e-06
0.000231788
-1.02666e-06
0.000231941
-9.59405e-07
0.000232084
-8.97649e-07
0.000232219
-8.41084e-07
0.000232345
-7.89399e-07
0.000232463
-7.42322e-07
0.000232575
-6.99608e-07
0.00023268
-6.61015e-07
0.00023278
-6.26341e-07
0.000232875
-5.95377e-07
0.000232966
-5.67968e-07
0.000233053
-5.43967e-07
0.000233136
-5.23228e-07
0.000233217
-5.05643e-07
0.000233295
-4.91118e-07
0.000233371
-4.79573e-07
0.000233446
-4.70947e-07
0.00023352
-4.65195e-07
0.000233594
-4.62291e-07
0.000233668
-4.62236e-07
0.000233742
-4.65027e-07
0.000233817
-4.70684e-07
0.000233893
-4.79251e-07
0.000233971
-4.9079e-07
0.000234052
-5.05373e-07
0.000234135
-5.23101e-07
0.000234222
-5.4409e-07
0.000234312
-5.68482e-07
0.000234407
-5.9643e-07
0.000234507
-6.28115e-07
0.000234613
-6.63751e-07
0.000234725
-7.03573e-07
0.000234844
-7.47837e-07
0.00023497
-7.96824e-07
0.000235106
-8.50864e-07
0.00023525
-9.10306e-07
0.000235405
-9.75537e-07
0.000235572
-1.04699e-06
0.000235751
-1.12516e-06
0.000235943
-1.21052e-06
0.00023615
-1.30367e-06
0.000236373
-1.40523e-06
0.000236614
-1.51587e-06
0.000236874
-1.63635e-06
0.000237154
-1.76749e-06
0.000237457
-1.91017e-06
0.000237784
-2.06538e-06
0.000238139
-2.2342e-06
0.000238522
-2.41781e-06
0.000238936
-2.6175e-06
0.000239385
-2.83469e-06
0.00023987
-3.07093e-06
0.000240397
-3.32795e-06
0.000240967
-3.60763e-06
0.000241584
-3.91205e-06
0.000242254
-4.24348e-06
0.00024298
-4.60447e-06
0.000243767
-4.9978e-06
0.000244621
-5.42656e-06
0.000245547
-5.89419e-06
0.000246553
-6.40449e-06
0.000247645
-6.96169e-06
0.000248831
-7.5705e-06
0.000250119
-8.2362e-06
0.000251519
-8.96467e-06
0.000253041
-9.76252e-06
0.000254696
-1.06372e-05
0.000256498
-1.1597e-05
0.000258458
-1.26515e-05
0.000260593
-1.38112e-05
0.00026292
-1.50884e-05
0.000265456
-1.64969e-05
0.000268222
-1.80525e-05
0.000271242
-1.97734e-05
0.000274539
-2.16803e-05
0.000278144
-2.37974e-05
0.000282085
-2.61525e-05
0.0002864
-2.87781e-05
0.000291126
-3.17122e-05
0.000296307
-3.49992e-05
0.000301992
-3.86917e-05
0.000308236
-4.28518e-05
0.000315098
-4.75534e-05
0.000322648
-5.28851e-05
0.000330961
-5.89534e-05
0.00034012
-6.5887e-05
0.000350218
-7.38425e-05
0.000361355
-8.30116e-05
0.000373638
-9.36301e-05
0.000387178
-0.000105989
0.000402086
-0.000120453
0.000418455
-0.000137475
0.000436361
-0.000157628
0.000455802
-0.000181628
0.000476688
-0.000210394
0.00049871
-0.000245069
0.000521244
-0.000287114
0.000543072
-0.000338337
0.000562011
-0.000400968
0.000574242
-0.000477639
0.000573029
-0.000571195