/*--------------------------------*- C++ -*----------------------------------*\
  =========                 |
  \\      /  F ield         | OpenFOAM: The Open Source CFD Toolbox
   \\    /   O peration     | Website:  https://openfoam.org
    \\  /    A nd           | Version:  dev
     \\/     M anipulation  |
\*---------------------------------------------------------------------------*/
FoamFile
{
    version     2.0;
    format      ascii;
    class       volVectorField;
    location    "14";
    object      U;
}
// * * * * * * * * * * * * * * * * * * * * * * * * * * * * * * * * * * * * * //

dimensions      [0 1 -1 0 0 0 0];

internalField   nonuniform List<vector> 
8000
(
(0.0997413 -2.06414e-05 0)
(0.100138 -0.000323869 0)
(0.100216 -0.000782306 0)
(0.0998153 -9.09504e-05 0)
(0.0998806 -1.37186e-05 0)
(0.100971 -0.000787185 0)
(0.101642 -0.00250352 0)
(0.0990395 -0.000712989 0)
(0.10023 0.000103631 0)
(0.102179 -0.000695869 0)
(0.103914 -0.00364012 0)
(0.0994634 -0.00116495 0)
(0.100432 0.000377109 0)
(0.103318 0.000319825 0)
(0.106441 -0.00324894 0)
(0.10161 -0.000739878 0)
(0.0999476 0.000843734 0)
(0.103798 0.0023952 0)
(0.108385 -0.000620269 0)
(0.10536 0.00187775 0)
(0.0980687 0.00154998 0)
(0.102923 0.00532979 0)
(0.10857 0.00458202 0)
(0.109447 0.00787188 0)
(0.0941104 0.00255174 0)
(0.0999239 0.00862763 0)
(0.105658 0.0117029 0)
(0.11055 0.0171107 0)
(0.0877124 0.00379012 0)
(0.0941489 0.0114624 0)
(0.0990331 0.0185475 0)
(0.105437 0.027239 0)
(0.0792672 0.00497858 0)
(0.0858241 0.013116 0)
(0.0894283 0.0226502 0)
(0.0946722 0.0342975 0)
(0.0696709 0.00575983 0)
(0.0760475 0.0134589 0)
(0.0782869 0.0235014 0)
(0.0814145 0.0358427 0)
(0.0602372 0.00593892 0)
(0.0665565 0.0127459 0)
(0.0678719 0.0220978 0)
(0.0686816 0.0328848 0)
(0.0516488 0.00565234 0)
(0.058216 0.0114854 0)
(0.0592176 0.0196802 0)
(0.0584764 0.0281991 0)
(0.043845 0.00514161 0)
(0.0509951 0.0101064 0)
(0.0522196 0.0170994 0)
(0.0509104 0.0237379 0)
(0.0369911 0.00434354 0)
(0.0448797 0.0086416 0)
(0.0464439 0.0145477 0)
(0.0451235 0.0199868 0)
(0.0314959 0.0031726 0)
(0.0396958 0.00691389 0)
(0.0414557 0.0119322 0)
(0.0402894 0.016676 0)
(0.0275701 0.00199007 0)
(0.0353224 0.0051333 0)
(0.0370395 0.00943288 0)
(0.0360247 0.0136795 0)
(0.0249042 0.00119607 0)
(0.0316852 0.00376394 0)
(0.0331457 0.00741245 0)
(0.0322544 0.01114 0)
(0.0229631 0.000822046 0)
(0.028688 0.002964 0)
(0.0298067 0.00599349 0)
(0.029017 0.00915067 0)
(0.0213566 0.000687389 0)
(0.0262235 0.0025455 0)
(0.0270296 0.0050185 0)
(0.0263178 0.00763515 0)
(0.0199146 0.00062571 0)
(0.0241772 0.0022724 0)
(0.0247426 0.00428827 0)
(0.0240916 0.00645371 0)
(0.0186015 0.000566228 0)
(0.022453 0.00202879 0)
(0.022845 0.00369036 0)
(0.0222492 0.00549648 0)
(0.0174233 0.000501844 0)
(0.0209857 0.00179295 0)
(0.0212543 0.00318092 0)
(0.0207142 0.00469789 0)
(0.0163816 0.000439208 0)
(0.0197305 0.0015704 0)
(0.0199119 0.00274142 0)
(0.0194282 0.00401947 0)
(0.0154694 0.000381711 0)
(0.0186545 0.00136567 0)
(0.0187757 0.00235954 0)
(0.0183467 0.00343672 0)
(0.0146764 0.000329934 0)
(0.0177325 0.00117976 0)
(0.0178137 0.00202541 0)
(0.017435 0.00293227 0)
(0.0139919 0.00028355 0)
(0.0169444 0.00101211 0)
(0.0170002 0.00173123 0)
(0.0166664 0.0024927 0)
(0.0134054 0.000242 0)
(0.0162739 0.000861517 0)
(0.0163146 0.0014708 0)
(0.0160199 0.00210735 0)
(0.0129071 0.00020469 0)
(0.0157074 0.000726419 0)
(0.0157401 0.00123915 0)
(0.0154791 0.00176756 0)
(0.0124885 0.000171078 0)
(0.0152334 0.000605214 0)
(0.0152629 0.0010322 0)
(0.0150306 0.00146636 0)
(0.0121414 0.000140656 0)
(0.0148421 0.000496275 0)
(0.0148711 0.000846577 0)
(0.0146636 0.00119817 0)
(0.0118594 0.000113112 0)
(0.014525 0.000398346 0)
(0.0145552 0.000679732 0)
(0.0143688 0.000958592 0)
(0.0116351 8.72636e-05 0)
(0.0142739 0.000309469 0)
(0.0143064 0.000529088 0)
(0.0141384 0.000743913 0)
(0.0114663 6.46478e-05 0)
(0.0140831 0.000230559 0)
(0.0141176 0.000394381 0)
(0.0139658 0.000552017 0)
(0.0113435 4.46267e-05 0)
(0.0139444 0.000160501 0)
(0.0139823 0.000274427 0)
(0.0138455 0.000380642 0)
(0.011263 2.61657e-05 0)
(0.0138527 9.70142e-05 0)
(0.0138952 0.000165746 0)
(0.0137726 0.000225773 0)
(0.011222 9.18682e-06 0)
(0.013804 3.89773e-05 0)
(0.0138518 6.65834e-05 0)
(0.0137425 8.53359e-05 0)
(0.0112164 -6.5784e-06 0)
(0.0137941 -1.39583e-05 0)
(0.0138475 -2.31267e-05 0)
(0.0137503 -4.0921e-05 0)
(0.0112433 -2.07377e-05 0)
(0.0138195 -6.09495e-05 0)
(0.0138779 -0.000102976 0)
(0.0137918 -0.000153223 0)
(0.0112983 -3.28808e-05 0)
(0.0138757 -0.00010184 0)
(0.0139391 -0.000172954 0)
(0.0138633 -0.000252013 0)
(0.0113778 -4.35928e-05 0)
(0.013959 -0.00013775 0)
(0.0140274 -0.000234328 0)
(0.0139614 -0.000338595 0)
(0.011479 -5.29857e-05 0)
(0.014066 -0.000169101 0)
(0.0141394 -0.000287791 0)
(0.0140826 -0.000413934 0)
(0.0115989 -6.11168e-05 0)
(0.0141935 -0.000196139 0)
(0.0142717 -0.000333825 0)
(0.0142236 -0.000478717 0)
(0.0117349 -6.8051e-05 0)
(0.0143385 -0.000219115 0)
(0.0144215 -0.00037289 0)
(0.0143815 -0.000533605 0)
(0.0118845 -7.38562e-05 0)
(0.0144982 -0.000238286 0)
(0.0145859 -0.000405444 0)
(0.0145535 -0.000579252 0)
(0.0120453 -7.86024e-05 0)
(0.0146701 -0.000253908 0)
(0.0147622 -0.000431933 0)
(0.0147369 -0.000616278 0)
(0.0122152 -8.23594e-05 0)
(0.0148517 -0.00026623 0)
(0.014948 -0.000452778 0)
(0.0149292 -0.000645288 0)
(0.0123919 -8.51973e-05 0)
(0.0150407 -0.000275499 0)
(0.0151411 -0.000468408 0)
(0.0151283 -0.00066691 0)
(0.0125738 -8.71895e-05 0)
(0.0152352 -0.000281974 0)
(0.0153393 -0.000479269 0)
(0.015332 -0.000681786 0)
(0.012759 -8.841e-05 0)
(0.0154332 -0.00028591 0)
(0.0155409 -0.000485806 0)
(0.0155385 -0.000690548 0)
(0.012946 -8.89316e-05 0)
(0.015633 -0.00028756 0)
(0.015744 -0.000488452 0)
(0.0157461 -0.000693807 0)
(0.0131334 -8.88261e-05 0)
(0.0158332 -0.000287164 0)
(0.0159472 -0.000487622 0)
(0.0159532 -0.000692162 0)
(0.0133199 -8.81645e-05 0)
(0.0160323 -0.000284958 0)
(0.0161491 -0.000483727 0)
(0.0161586 -0.0006862 0)
(0.0135044 -8.70168e-05 0)
(0.0162293 -0.000281174 0)
(0.0163486 -0.000477161 0)
(0.0163611 -0.000676481 0)
(0.0136861 -8.54488e-05 0)
(0.0164231 -0.00027603 0)
(0.0165446 -0.000468293 0)
(0.0165597 -0.000663533 0)
(0.013864 -8.35216e-05 0)
(0.0166128 -0.000269731 0)
(0.0167364 -0.000457473 0)
(0.0167536 -0.000647854 0)
(0.0140375 -8.12942e-05 0)
(0.0167977 -0.000262468 0)
(0.0169231 -0.000445029 0)
(0.0169421 -0.000629909 0)
(0.0142059 -7.88219e-05 0)
(0.0169772 -0.000254419 0)
(0.0171041 -0.000431264 0)
(0.0171246 -0.000610127 0)
(0.014369 -7.61556e-05 0)
(0.0171508 -0.000245748 0)
(0.0172791 -0.000416455 0)
(0.0173008 -0.000588902 0)
(0.0145262 -7.33402e-05 0)
(0.0173182 -0.000236604 0)
(0.0174476 -0.000400857 0)
(0.0174701 -0.000566591 0)
(0.0146774 -7.04173e-05 0)
(0.0174791 -0.00022712 0)
(0.0176095 -0.000384694 0)
(0.0176326 -0.000543515 0)
(0.0148223 -6.74236e-05 0)
(0.0176332 -0.000217415 0)
(0.0177645 -0.00036817 0)
(0.0177879 -0.000519958 0)
(0.0149609 -6.43917e-05 0)
(0.0177805 -0.000207596 0)
(0.0179124 -0.000351463 0)
(0.017936 -0.000496172 0)
(0.015093 -6.13505e-05 0)
(0.017921 -0.000197754 0)
(0.0180535 -0.000334729 0)
(0.018077 -0.000472376 0)
(0.0152188 -5.83255e-05 0)
(0.0180546 -0.00018797 0)
(0.0181875 -0.000318101 0)
(0.0182109 -0.000448755 0)
(0.0153382 -5.53368e-05 0)
(0.0181815 -0.00017831 0)
(0.0183147 -0.000301693 0)
(0.0183377 -0.000425471 0)
(0.0154514 -5.24026e-05 0)
(0.0183016 -0.000168831 0)
(0.0184351 -0.000285602 0)
(0.0184577 -0.000402654 0)
(0.0155585 -4.95378e-05 0)
(0.0184153 -0.000159581 0)
(0.0185489 -0.000269904 0)
(0.0185711 -0.000380413 0)
(0.0156596 -4.67536e-05 0)
(0.0185226 -0.000150597 0)
(0.0186563 -0.000254664 0)
(0.0186779 -0.000358836 0)
(0.015755 -4.40598e-05 0)
(0.0186238 -0.00014191 0)
(0.0187575 -0.000239931 0)
(0.0187785 -0.000337991 0)
(0.0158448 -4.14634e-05 0)
(0.0187191 -0.00013354 0)
(0.0188528 -0.000225745 0)
(0.0188731 -0.00031793 0)
(0.0159292 -3.89704e-05 0)
(0.0188087 -0.000125505 0)
(0.0189423 -0.000212131 0)
(0.018962 -0.000298689 0)
(0.0160086 -3.65843e-05 0)
(0.0188928 -0.000117815 0)
(0.0190264 -0.000199108 0)
(0.0190453 -0.000280291 0)
(0.016083 -3.43074e-05 0)
(0.0189717 -0.000110478 0)
(0.0191052 -0.000186685 0)
(0.0191234 -0.000262749 0)
(0.0161528 -3.21401e-05 0)
(0.0190457 -0.000103495 0)
(0.019179 -0.000174866 0)
(0.0191965 -0.000246068 0)
(0.0162181 -3.00816e-05 0)
(0.0191149 -9.68655e-05 0)
(0.0192481 -0.000163647 0)
(0.0192649 -0.00023024 0)
(0.0162792 -2.8131e-05 0)
(0.0191797 -9.05854e-05 0)
(0.0193127 -0.000153022 0)
(0.0193288 -0.000215256 0)
(0.0163363 -2.62869e-05 0)
(0.0192402 -8.46486e-05 0)
(0.019373 -0.000142979 0)
(0.0193884 -0.000201098 0)
(0.0163897 -2.4546e-05 0)
(0.0192968 -7.9046e-05 0)
(0.0194294 -0.000133504 0)
(0.0194441 -0.000187744 0)
(0.0164395 -2.29057e-05 0)
(0.0193495 -7.37683e-05 0)
(0.019482 -0.00012458 0)
(0.0194961 -0.000175172 0)
(0.016486 -2.13625e-05 0)
(0.0193988 -6.88044e-05 0)
(0.019531 -0.000116188 0)
(0.0195445 -0.000163353 0)
(0.0165294 -1.99132e-05 0)
(0.0194447 -6.41429e-05 0)
(0.0195768 -0.000108309 0)
(0.0195897 -0.000152258 0)
(0.0165698 -1.8554e-05 0)
(0.0194875 -5.97712e-05 0)
(0.0196194 -0.00010092 0)
(0.0196317 -0.000141857 0)
(0.0166074 -1.72808e-05 0)
(0.0195273 -5.56766e-05 0)
(0.0196591 -9.40016e-05 0)
(0.0196708 -0.000132119 0)
(0.0166424 -1.60897e-05 0)
(0.0195645 -5.18462e-05 0)
(0.019696 -8.75303e-05 0)
(0.0197073 -0.000123014 0)
(0.0166751 -1.49767e-05 0)
(0.019599 -4.82675e-05 0)
(0.0197304 -8.14855e-05 0)
(0.0197412 -0.00011451 0)
(0.0167055 -1.39377e-05 0)
(0.0196312 -4.49281e-05 0)
(0.0197624 -7.58452e-05 0)
(0.0197727 -0.000106575 0)
(0.0167337 -1.29691e-05 0)
(0.0196612 -4.18152e-05 0)
(0.0197922 -7.05878e-05 0)
(0.019802 -9.91809e-05 0)
(0.01676 -1.2067e-05 0)
(0.019689 -3.89161e-05 0)
(0.01982 -6.56926e-05 0)
(0.0198294 -9.22973e-05 0)
(0.0167845 -1.12279e-05 0)
(0.019715 -3.62196e-05 0)
(0.0198458 -6.11394e-05 0)
(0.0198548 -8.58958e-05 0)
(0.0168073 -1.04483e-05 0)
(0.0197391 -3.37142e-05 0)
(0.0198698 -5.69093e-05 0)
(0.0198784 -7.99491e-05 0)
(0.0168285 -9.72446e-06 0)
(0.0197616 -3.13887e-05 0)
(0.0198921 -5.29838e-05 0)
(0.0199004 -7.44312e-05 0)
(0.0168483 -9.05333e-06 0)
(0.0197825 -2.92329e-05 0)
(0.0199129 -4.93444e-05 0)
(0.0199209 -6.93164e-05 0)
(0.0168667 -8.43172e-06 0)
(0.019802 -2.72365e-05 0)
(0.0199323 -4.59752e-05 0)
(0.0199399 -6.45819e-05 0)
(0.0168838 -7.8565e-06 0)
(0.0198202 -2.53903e-05 0)
(0.0199504 -4.286e-05 0)
(0.0199577 -6.02048e-05 0)
(0.0168998 -7.32545e-06 0)
(0.0198372 -2.36857e-05 0)
(0.0199672 -3.99834e-05 0)
(0.0199743 -5.61634e-05 0)
(0.0169147 -6.83518e-06 0)
(0.019853 -2.21141e-05 0)
(0.0199829 -3.73321e-05 0)
(0.0199897 -5.2438e-05 0)
(0.0169287 -6.38401e-06 0)
(0.0198678 -2.06677e-05 0)
(0.0199976 -3.48916e-05 0)
(0.0200042 -4.90099e-05 0)
(0.0169417 -5.96931e-06 0)
(0.0198816 -1.9339e-05 0)
(0.0200114 -3.26502e-05 0)
(0.0200177 -4.58615e-05 0)
(0.0169539 -5.58909e-06 0)
(0.0198946 -1.81216e-05 0)
(0.0200242 -3.05964e-05 0)
(0.0200303 -4.29766e-05 0)
(0.0169653 -5.24137e-06 0)
(0.0199067 -1.70086e-05 0)
(0.0200363 -2.87193e-05 0)
(0.0200421 -4.03405e-05 0)
(0.0169761 -4.92395e-06 0)
(0.0199181 -1.59943e-05 0)
(0.0200476 -2.70091e-05 0)
(0.0200533 -3.79392e-05 0)
(0.0169862 -4.63554e-06 0)
(0.0199289 -1.50736e-05 0)
(0.0200583 -2.54567e-05 0)
(0.0200638 -3.57594e-05 0)
(0.0169957 -4.37431e-06 0)
(0.019939 -1.42415e-05 0)
(0.0200683 -2.40539e-05 0)
(0.0200737 -3.37897e-05 0)
(0.0170047 -4.13937e-06 0)
(0.0199486 -1.34937e-05 0)
(0.0200779 -2.27933e-05 0)
(0.020083 -3.20196e-05 0)
(0.0170133 -3.92928e-06 0)
(0.0199577 -1.28258e-05 0)
(0.0200869 -2.16678e-05 0)
(0.0200919 -3.04393e-05 0)
(0.0170214 -3.74219e-06 0)
(0.0199664 -1.22341e-05 0)
(0.0200955 -2.06713e-05 0)
(0.0201004 -2.90403e-05 0)
(0.0170292 -3.57774e-06 0)
(0.0199747 -1.17156e-05 0)
(0.0201038 -1.97981e-05 0)
(0.0201084 -2.78147e-05 0)
(0.0170366 -3.43469e-06 0)
(0.0199827 -1.12676e-05 0)
(0.0201117 -1.9044e-05 0)
(0.0201162 -2.67558e-05 0)
(0.0170438 -3.31261e-06 0)
(0.0199904 -1.08877e-05 0)
(0.0201193 -1.84043e-05 0)
(0.0201237 -2.58576e-05 0)
(0.0170508 -3.21098e-06 0)
(0.0199979 -1.05736e-05 0)
(0.0201267 -1.78758e-05 0)
(0.0201309 -2.51158e-05 0)
(0.0170576 -3.12891e-06 0)
(0.0200051 -1.03236e-05 0)
(0.0201339 -1.74559e-05 0)
(0.020138 -2.45266e-05 0)
(0.0170642 -3.06608e-06 0)
(0.0200122 -1.01364e-05 0)
(0.0201409 -1.7142e-05 0)
(0.0201449 -2.40867e-05 0)
(0.0170707 -3.0217e-06 0)
(0.0200192 -1.00114e-05 0)
(0.0201478 -1.69334e-05 0)
(0.0201517 -2.37938e-05 0)
(0.0170772 -2.99601e-06 0)
(0.0200262 -9.94797e-06 0)
(0.0201547 -1.68284e-05 0)
(0.0201585 -2.36463e-05 0)
(0.0170836 -2.98924e-06 0)
(0.0200331 -9.94582e-06 0)
(0.0201616 -1.68268e-05 0)
(0.0201652 -2.36443e-05 0)
(0.0170901 -3.00125e-06 0)
(0.0200401 -1.00053e-05 0)
(0.0201684 -1.69292e-05 0)
(0.0201719 -2.3788e-05 0)
(0.0170966 -3.0322e-06 0)
(0.0200471 -1.01262e-05 0)
(0.0201754 -1.71353e-05 0)
(0.0201787 -2.40786e-05 0)
(0.0171032 -3.08181e-06 0)
(0.0200542 -1.03099e-05 0)
(0.0201824 -1.7448e-05 0)
(0.0201856 -2.45183e-05 0)
(0.0171099 -3.15045e-06 0)
(0.0200615 -1.05578e-05 0)
(0.0201896 -1.78691e-05 0)
(0.0201927 -2.51098e-05 0)
(0.0171169 -3.23844e-06 0)
(0.020069 -1.08712e-05 0)
(0.020197 -1.84012e-05 0)
(0.0201999 -2.58572e-05 0)
(0.017124 -3.34677e-06 0)
(0.0200767 -1.12526e-05 0)
(0.0202046 -1.90482e-05 0)
(0.0202074 -2.67656e-05 0)
(0.0171314 -3.47686e-06 0)
(0.0200847 -1.17047e-05 0)
(0.0202125 -1.98141e-05 0)
(0.0202152 -2.78411e-05 0)
(0.0171392 -3.62929e-06 0)
(0.0200931 -1.22306e-05 0)
(0.0202208 -2.07041e-05 0)
(0.0202233 -2.90907e-05 0)
(0.0171472 -3.80469e-06 0)
(0.0201019 -1.28331e-05 0)
(0.0202294 -2.17238e-05 0)
(0.0202317 -3.0523e-05 0)
(0.0171557 -4.00401e-06 0)
(0.0201111 -1.35162e-05 0)
(0.0202385 -2.28803e-05 0)
(0.0202406 -3.21469e-05 0)
(0.0171647 -4.22852e-06 0)
(0.0201208 -1.42846e-05 0)
(0.0202481 -2.41811e-05 0)
(0.02025 -3.39733e-05 0)
(0.0171742 -4.48008e-06 0)
(0.0201311 -1.51436e-05 0)
(0.0202582 -2.56346e-05 0)
(0.02026 -3.60139e-05 0)
(0.0171843 -4.76031e-06 0)
(0.020142 -1.60985e-05 0)
(0.0202689 -2.72505e-05 0)
(0.0202705 -3.82824e-05 0)
(0.017195 -5.07131e-06 0)
(0.0201537 -1.7156e-05 0)
(0.0202804 -2.90391e-05 0)
(0.0202818 -4.07934e-05 0)
(0.0172064 -5.41507e-06 0)
(0.0201661 -1.83226e-05 0)
(0.0202926 -3.10124e-05 0)
(0.0202937 -4.35637e-05 0)
(0.0172187 -5.79345e-06 0)
(0.0201793 -1.96061e-05 0)
(0.0203057 -3.31835e-05 0)
(0.0203065 -4.66114e-05 0)
(0.0172318 -6.20881e-06 0)
(0.0201935 -2.10152e-05 0)
(0.0203196 -3.55671e-05 0)
(0.0203202 -4.99567e-05 0)
(0.0172458 -6.66447e-06 0)
(0.0202088 -2.25595e-05 0)
(0.0203346 -3.81785e-05 0)
(0.0203349 -5.36213e-05 0)
(0.0172609 -7.16317e-06 0)
(0.0202251 -2.42492e-05 0)
(0.0203507 -4.10353e-05 0)
(0.0203507 -5.76296e-05 0)
(0.0172772 -7.70909e-06 0)
(0.0202427 -2.60955e-05 0)
(0.020368 -4.41562e-05 0)
(0.0203677 -6.20085e-05 0)
(0.0172946 -8.30573e-06 0)
(0.0202617 -2.8111e-05 0)
(0.0203867 -4.75624e-05 0)
(0.020386 -6.67874e-05 0)
(0.0173135 -8.95698e-06 0)
(0.0202821 -3.0309e-05 0)
(0.0204067 -5.12768e-05 0)
(0.0204057 -7.19991e-05 0)
(0.0173338 -9.66712e-06 0)
(0.0203041 -3.27047e-05 0)
(0.0204284 -5.53252e-05 0)
(0.0204269 -7.76784e-05 0)
(0.0173557 -1.04408e-05 0)
(0.0203279 -3.53142e-05 0)
(0.0204518 -5.97349e-05 0)
(0.0204498 -8.38641e-05 0)
(0.0173794 -1.12836e-05 0)
(0.0203536 -3.8156e-05 0)
(0.020477 -6.45366e-05 0)
(0.0204745 -9.05987e-05 0)
(0.0174051 -1.22018e-05 0)
(0.0203813 -4.12501e-05 0)
(0.0205042 -6.97633e-05 0)
(0.0205012 -9.79282e-05 0)
(0.0174328 -1.32021e-05 0)
(0.0204113 -4.4618e-05 0)
(0.0205337 -7.54513e-05 0)
(0.0205301 -0.000105904 0)
(0.0174627 -1.42915e-05 0)
(0.0204437 -4.82835e-05 0)
(0.0205656 -8.1641e-05 0)
(0.0205613 -0.000114581 0)
(0.0174952 -1.5478e-05 0)
(0.0204788 -5.22728e-05 0)
(0.0206001 -8.83758e-05 0)
(0.0205951 -0.000124021 0)
(0.0175303 -1.67699e-05 0)
(0.0205168 -5.66143e-05 0)
(0.0206374 -9.57045e-05 0)
(0.0206317 -0.000134292 0)
(0.0175684 -1.81773e-05 0)
(0.0205579 -6.13401e-05 0)
(0.0206778 -0.00010368 0)
(0.0206713 -0.000145469 0)
(0.0176097 -1.97107e-05 0)
(0.0206025 -6.64852e-05 0)
(0.0207216 -0.000112361 0)
(0.0207141 -0.00015763 0)
(0.0176544 -2.13821e-05 0)
(0.0206508 -7.20879e-05 0)
(0.020769 -0.000121812 0)
(0.0207606 -0.000170868 0)
(0.0177029 -2.32042e-05 0)
(0.0207032 -7.81907e-05 0)
(0.0208204 -0.000132103 0)
(0.0208109 -0.00018528 0)
(0.0177556 -2.51916e-05 0)
(0.02076 -8.48405e-05 0)
(0.0208762 -0.000143313 0)
(0.0208655 -0.000200976 0)
(0.0178128 -2.73599e-05 0)
(0.0208216 -9.20891e-05 0)
(0.0209367 -0.00015553 0)
(0.0209247 -0.000218076 0)
(0.0178748 -2.97267e-05 0)
(0.0208885 -9.99936e-05 0)
(0.0210023 -0.000168847 0)
(0.0209889 -0.000236712 0)
(0.0179422 -3.23121e-05 0)
(0.0209611 -0.000108618 0)
(0.0210735 -0.000183372 0)
(0.0210586 -0.000257032 0)
(0.0180155 -3.51372e-05 0)
(0.0210399 -0.000118034 0)
(0.0211508 -0.000199222 0)
(0.0211342 -0.000279201 0)
(0.0180951 -3.82269e-05 0)
(0.0211256 -0.000128319 0)
(0.0212348 -0.00021653 0)
(0.0212163 -0.000303398 0)
(0.0181817 -4.16087e-05 0)
(0.0212186 -0.000139564 0)
(0.021326 -0.000235441 0)
(0.0213055 -0.000329828 0)
(0.018276 -4.5314e-05 0)
(0.0213198 -0.000151865 0)
(0.0214252 -0.00025612 0)
(0.0214024 -0.000358716 0)
(0.0183786 -4.93774e-05 0)
(0.0214299 -0.000165334 0)
(0.021533 -0.000278747 0)
(0.0215077 -0.000390313 0)
(0.0184904 -5.38379e-05 0)
(0.0215497 -0.000180094 0)
(0.0216503 -0.000303529 0)
(0.0216222 -0.000424903 0)
(0.0186123 -5.8739e-05 0)
(0.0216802 -0.000196285 0)
(0.021778 -0.000330694 0)
(0.0217468 -0.000462803 0)
(0.0187451 -6.41309e-05 0)
(0.0218222 -0.000214064 0)
(0.021917 -0.000360504 0)
(0.0218825 -0.00050437 0)
(0.0188901 -7.00698e-05 0)
(0.0219771 -0.000233608 0)
(0.0220685 -0.000393251 0)
(0.0220302 -0.000550006 0)
(0.0190485 -7.66204e-05 0)
(0.0221461 -0.000255123 0)
(0.0222337 -0.000429268 0)
(0.0221911 -0.000600168 0)
(0.0192216 -8.38572e-05 0)
(0.0223304 -0.000278837 0)
(0.0224138 -0.000468933 0)
(0.0223666 -0.000655373 0)
(0.019411 -9.18657e-05 0)
(0.0225318 -0.000305015 0)
(0.0226105 -0.000512675 0)
(0.022558 -0.00071621 0)
(0.0196183 -0.000100743 0)
(0.022752 -0.000333959 0)
(0.0228253 -0.000560989 0)
(0.022767 -0.000783352 0)
(0.0198455 -0.000110603 0)
(0.0229928 -0.000366017 0)
(0.0230602 -0.000614438 0)
(0.0229953 -0.000857567 0)
(0.0200948 -0.000121576 0)
(0.0232566 -0.000401588 0)
(0.0233172 -0.000673671 0)
(0.0232448 -0.00093974 0)
(0.0203687 -0.000133815 0)
(0.0235457 -0.00044114 0)
(0.0235988 -0.00073944 0)
(0.023518 -0.00103089 0)
(0.02067 -0.000147498 0)
(0.023863 -0.000485213 0)
(0.0239075 -0.000812618 0)
(0.0238171 -0.00113221 0)
(0.0210017 -0.000162839 0)
(0.0242117 -0.000534435 0)
(0.0242463 -0.00089423 0)
(0.0241451 -0.00124507 0)
(0.0213677 -0.000180086 0)
(0.0245953 -0.000589549 0)
(0.0246187 -0.000985472 0)
(0.0245051 -0.00137108 0)
(0.0217722 -0.000199535 0)
(0.0250179 -0.00065143 0)
(0.0250286 -0.00108775 0)
(0.0249007 -0.00151213 0)
(0.0222198 -0.000221541 0)
(0.0254843 -0.000721117 0)
(0.0254803 -0.00120273 0)
(0.025336 -0.00167045 0)
(0.0227163 -0.000246527 0)
(0.0259998 -0.000799849 0)
(0.0259788 -0.00133239 0)
(0.0258157 -0.00184869 0)
(0.0232682 -0.000275006 0)
(0.0265708 -0.000889114 0)
(0.0265302 -0.00147912 0)
(0.026345 -0.00205 0)
(0.0238831 -0.0003076 0)
(0.0272046 -0.000990707 0)
(0.027141 -0.00164575 0)
(0.0269301 -0.00227817 0)
(0.0245699 -0.000345073 0)
(0.0279095 -0.00110681 0)
(0.0278192 -0.00183577 0)
(0.0275781 -0.00253778 0)
(0.0253393 -0.000388361 0)
(0.0286957 -0.0012401 0)
(0.0285738 -0.00205341 0)
(0.028297 -0.0028344 0)
(0.026204 -0.000438633 0)
(0.0295749 -0.00139388 0)
(0.0294157 -0.00230387 0)
(0.0290964 -0.00317486 0)
(0.027179 -0.000497331 0)
(0.0305612 -0.00157223 0)
(0.0303575 -0.00259363 0)
(0.0299873 -0.00356756 0)
(0.0282827 -0.000566334 0)
(0.0316714 -0.00178042 0)
(0.0314144 -0.00293072 0)
(0.0309826 -0.00402302 0)
(0.0295372 -0.000647827 0)
(0.0329258 -0.00202485 0)
(0.0326044 -0.00332537 0)
(0.0320976 -0.0045544 0)
(0.0309701 -0.000745241 0)
(0.0343491 -0.00231433 0)
(0.0339493 -0.00379065 0)
(0.0333503 -0.00517841 0)
(0.0326148 -0.000861511 0)
(0.0359723 -0.00265882 0)
(0.0354757 -0.00434347 0)
(0.034762 -0.00591646 0)
(0.0345146 -0.00100386 0)
(0.0378326 -0.00307457 0)
(0.037216 -0.00500587 0)
(0.0363584 -0.0067963 0)
(0.0367224 -0.00117568 0)
(0.0399785 -0.00357752 0)
(0.0392104 -0.00580725 0)
(0.0381697 -0.00785421 0)
(0.0393084 -0.00139145 0)
(0.0424703 -0.00419811 0)
(0.0415089 -0.00678679 0)
(0.0402323 -0.00913859 0)
(0.0423616 -0.00165808 0)
(0.0453869 -0.00496677 0)
(0.0441745 -0.00799862 0)
(0.0425895 -0.0107142 0)
(0.0460039 -0.00199998 0)
(0.0488315 -0.00593912 0)
(0.0472872 -0.00951724 0)
(0.0452928 -0.0126696 0)
(0.0503897 -0.0024378 0)
(0.0529415 -0.00718225 0)
(0.0509506 -0.0114487 0)
(0.0484026 -0.0151273 0)
(0.0557628 -0.00301301 0)
(0.0579041 -0.00880297 0)
(0.055295 -0.0139453 0)
(0.0519875 -0.0182602 0)
(0.0623584 -0.00378549 0)
(0.0639752 -0.010965 0)
(0.0605066 -0.0172314 0)
(0.0561265 -0.0223128 0)
(0.0708707 -0.00482386 0)
(0.0715326 -0.0138672 0)
(0.0667796 -0.0216416 0)
(0.060884 -0.0276526 0)
(0.0810623 -0.00629037 0)
(0.0810326 -0.0179786 0)
(0.0745827 -0.0276927 0)
(0.0663802 -0.0347858 0)
(0.0966061 -0.00840967 0)
(0.0935644 -0.0235887 0)
(0.083909 -0.0361672 0)
(0.0724137 -0.0446441 0)
(0.110504 -0.0108864 0)
(0.10868 -0.0315801 0)
(0.0970248 -0.0483073 0)
(0.0799894 -0.0582051 0)
(0.146504 -0.0165187 0)
(0.134443 -0.0447631 0)
(0.111374 -0.0664198 0)
(0.0850218 -0.0788656 0)
(0.157855 -0.0174047 0)
(0.151863 -0.0530804 0)
(0.135264 -0.0884052 0)
(0.104677 -0.106776 0)
(0.246743 -0.0342251 0)
(0.225852 -0.0985837 0)
(0.176717 -0.149043 0)
(0.101899 -0.168802 0)
(0.00765697 -0.00464008 0)
(0.0170367 -0.00920279 0)
(0.0297876 -0.0120073 0)
(0.0434305 -0.0124091 0)
(0.0552223 -0.00964313 0)
(0.0670348 -0.00137375 0)
(0.0804602 0.0152267 0)
(0.0866313 0.0322488 0)
(0.0835191 0.0430212 0)
(0.0746784 0.0473073 0)
(0.0640309 0.0443728 0)
(0.0541812 0.0373097 0)
(0.0469573 0.0304799 0)
(0.0415618 0.0251992 0)
(0.0370939 0.0210373 0)
(0.0332423 0.0174995 0)
(0.0299263 0.0144593 0)
(0.0271133 0.0119593 0)
(0.0247612 0.00997091 0)
(0.0228071 0.00838718 0)
(0.021181 0.00710001 0)
(0.0198201 0.00603369 0)
(0.0186739 0.00513854 0)
(0.0177045 0.00437887 0)
(0.0168832 0.00372737 0)
(0.016188 0.00316334 0)
(0.0156018 0.00267082 0)
(0.015111 0.00223756 0)
(0.0147044 0.00185397 0)
(0.0143728 0.0015125 0)
(0.0141085 0.00120727 0)
(0.0139048 0.000933614 0)
(0.013756 0.000688198 0)
(0.0136571 0.000467674 0)
(0.0136039 0.000268618 0)
(0.0135915 8.88186e-05 0)
(0.0136156 -7.26664e-05 0)
(0.0136723 -0.000216412 0)
(0.013758 -0.000343202 0)
(0.0138694 -0.000454186 0)
(0.014003 -0.000550653 0)
(0.0141558 -0.00063349 0)
(0.0143247 -0.000703533 0)
(0.0145069 -0.0007616 0)
(0.0146998 -0.000808486 0)
(0.0149009 -0.000845 0)
(0.015108 -0.000871971 0)
(0.0153191 -0.00089023 0)
(0.0155322 -0.000900596 0)
(0.0157457 -0.000903865 0)
(0.0159581 -0.000900824 0)
(0.0161681 -0.000892243 0)
(0.0163746 -0.000878845 0)
(0.0165767 -0.000861321 0)
(0.0167734 -0.000840319 0)
(0.0169642 -0.000816445 0)
(0.0171486 -0.000790255 0)
(0.0173262 -0.000762261 0)
(0.0174966 -0.000732923 0)
(0.0176597 -0.000702655 0)
(0.0178154 -0.000671822 0)
(0.0179637 -0.000640746 0)
(0.0181045 -0.000609705 0)
(0.0182381 -0.000578938 0)
(0.0183645 -0.000548646 0)
(0.0184839 -0.000518997 0)
(0.0185965 -0.000490129 0)
(0.0187025 -0.00046215 0)
(0.0188022 -0.000435146 0)
(0.0188959 -0.000409179 0)
(0.0189838 -0.000384292 0)
(0.0190661 -0.000360513 0)
(0.0191432 -0.000337856 0)
(0.0192153 -0.000316321 0)
(0.0192827 -0.000295901 0)
(0.0193456 -0.000276577 0)
(0.0194044 -0.000258329 0)
(0.0194592 -0.000241126 0)
(0.0195102 -0.000224936 0)
(0.0195578 -0.000209721 0)
(0.0196021 -0.000195443 0)
(0.0196434 -0.000182064 0)
(0.0196817 -0.000169542 0)
(0.0197175 -0.000157836 0)
(0.0197507 -0.000146905 0)
(0.0197816 -0.00013671 0)
(0.0198103 -0.000127211 0)
(0.0198371 -0.00011837 0)
(0.0198619 -0.00011015 0)
(0.019885 -0.000102515 0)
(0.0199065 -9.54316e-05 0)
(0.0199266 -8.88678e-05 0)
(0.0199452 -8.2792e-05 0)
(0.0199626 -7.71755e-05 0)
(0.0199788 -7.19906e-05 0)
(0.0199939 -6.72118e-05 0)
(0.020008 -6.28148e-05 0)
(0.0200212 -5.87773e-05 0)
(0.0200335 -5.50779e-05 0)
(0.0200451 -5.16974e-05 0)
(0.0200559 -4.86184e-05 0)
(0.0200662 -4.58235e-05 0)
(0.0200758 -4.32987e-05 0)
(0.020085 -4.10293e-05 0)
(0.0200936 -3.90032e-05 0)
(0.0201019 -3.72099e-05 0)
(0.0201098 -3.56385e-05 0)
(0.0201173 -3.42813e-05 0)
(0.0201246 -3.31305e-05 0)
(0.0201317 -3.21801e-05 0)
(0.0201386 -3.14249e-05 0)
(0.0201453 -3.0861e-05 0)
(0.020152 -3.04852e-05 0)
(0.0201585 -3.02962e-05 0)
(0.0201651 -3.02936e-05 0)
(0.0201717 -3.04776e-05 0)
(0.0201783 -3.08499e-05 0)
(0.0201851 -3.14125e-05 0)
(0.0201919 -3.21697e-05 0)
(0.020199 -3.31268e-05 0)
(0.0202063 -3.42902e-05 0)
(0.0202138 -3.56677e-05 0)
(0.0202217 -3.72682e-05 0)
(0.02023 -3.91022e-05 0)
(0.0202387 -4.11814e-05 0)
(0.0202478 -4.352e-05 0)
(0.0202575 -4.61332e-05 0)
(0.0202678 -4.90377e-05 0)
(0.0202787 -5.2253e-05 0)
(0.0202904 -5.57997e-05 0)
(0.0203029 -5.97012e-05 0)
(0.0203162 -6.39834e-05 0)
(0.0203306 -6.86745e-05 0)
(0.0203459 -7.38056e-05 0)
(0.0203625 -7.94108e-05 0)
(0.0203803 -8.55277e-05 0)
(0.0203995 -9.21976e-05 0)
(0.0204201 -9.94651e-05 0)
(0.0204424 -0.00010738 0)
(0.0204665 -0.000115996 0)
(0.0204925 -0.000125373 0)
(0.0205206 -0.000135575 0)
(0.020551 -0.000146673 0)
(0.0205839 -0.000158746 0)
(0.0206195 -0.00017188 0)
(0.020658 -0.000186169 0)
(0.0206997 -0.000201715 0)
(0.0207449 -0.000218634 0)
(0.0207938 -0.00023705 0)
(0.0208469 -0.000257102 0)
(0.0209044 -0.000278942 0)
(0.0209668 -0.000302739 0)
(0.0210345 -0.00032868 0)
(0.0211079 -0.000356972 0)
(0.0211876 -0.000387845 0)
(0.0212741 -0.000421553 0)
(0.0213681 -0.000458383 0)
(0.0214702 -0.000498652 0)
(0.0215812 -0.000542716 0)
(0.0217018 -0.000590973 0)
(0.0218331 -0.000643872 0)
(0.021976 -0.000701918 0)
(0.0221315 -0.000765682 0)
(0.022301 -0.000835811 0)
(0.0224856 -0.000913038 0)
(0.0226871 -0.000998202 0)
(0.0229069 -0.00109226 0)
(0.0231469 -0.0011963 0)
(0.0234093 -0.0013116 0)
(0.0236962 -0.00143962 0)
(0.0240103 -0.00158204 0)
(0.0243545 -0.00174085 0)
(0.024732 -0.00191836 0)
(0.0251464 -0.00211728 0)
(0.025602 -0.00234084 0)
(0.0261034 -0.00259286 0)
(0.0266559 -0.00287789 0)
(0.0272657 -0.00320144 0)
(0.0279396 -0.00357013 0)
(0.0286855 -0.00399205 0)
(0.0295125 -0.00447712 0)
(0.0304311 -0.00503757 0)
(0.031453 -0.00568864 0)
(0.0325918 -0.00644947 0)
(0.0338632 -0.00734427 0)
(0.0352847 -0.00840407 0)
(0.036876 -0.00966875 0)
(0.0386586 -0.0111905 0)
(0.0406553 -0.0130377 0)
(0.0428888 -0.0153016 0)
(0.0453779 -0.0181046 0)
(0.048132 -0.0216131 0)
(0.0511391 -0.0260544 0)
(0.0543458 -0.0317463 0)
(0.0576087 -0.0391219 0)
(0.0606412 -0.0488425 0)
(0.0627802 -0.0616793 0)
(0.0624317 -0.079586 0)
(0.0598984 -0.103433 0)
(0.0178195 -0.144579 0)
(0.00536552 -0.0194081 0)
(0.0126255 -0.0237692 0)
(0.0222231 -0.0266562 0)
(0.0317623 -0.0265749 0)
(0.0407086 -0.022464 0)
(0.0474163 -0.0146222 0)
(0.0540348 0.00260266 0)
(0.0607188 0.0282614 0)
(0.0610739 0.0463777 0)
(0.0574305 0.0535041 0)
(0.0516295 0.0525333 0)
(0.0451826 0.045019 0)
(0.0398956 0.0363373 0)
(0.0358559 0.0297969 0)
(0.0322892 0.0248638 0)
(0.0292301 0.0207777 0)
(0.0266817 0.0172449 0)
(0.0245384 0.0142945 0)
(0.0227156 0.0119197 0)
(0.0211656 0.0100156 0)
(0.0198456 0.00846803 0)
(0.018717 0.00719078 0)
(0.0177495 0.00612187 0)
(0.0169198 0.00521601 0)
(0.0162093 0.00443954 0)
(0.0156034 0.00376705 0)
(0.0150901 0.00317929 0)
(0.0146595 0.00266152 0)
(0.0143034 0.00220229 0)
(0.0140147 0.00179268 0)
(0.0137876 0.00142578 0)
(0.0136164 0.00109619 0)
(0.0134966 0.000799627 0)
(0.013424 0.000532357 0)
(0.0133945 0.000290986 0)
(0.0134039 7.32813e-05 0)
(0.0134481 -0.000121945 0)
(0.0135236 -0.000295946 0)
(0.013627 -0.000449719 0)
(0.013755 -0.000584304 0)
(0.0139042 -0.000701028 0)
(0.0140717 -0.00080108 0)
(0.0142544 -0.000885444 0)
(0.0144494 -0.000955095 0)
(0.0146543 -0.00101102 0)
(0.0148665 -0.00105424 0)
(0.0150837 -0.00108576 0)
(0.015304 -0.0011066 0)
(0.0155254 -0.00111777 0)
(0.0157464 -0.00112027 0)
(0.0159653 -0.00111508 0)
(0.0161811 -0.00110316 0)
(0.0163925 -0.0010854 0)
(0.0165988 -0.00106265 0)
(0.016799 -0.00103572 0)
(0.0169927 -0.00100536 0)
(0.0171793 -0.000972254 0)
(0.0173586 -0.000937028 0)
(0.0175302 -0.000900248 0)
(0.0176942 -0.000862417 0)
(0.0178503 -0.000823983 0)
(0.0179986 -0.000785335 0)
(0.0181393 -0.000746809 0)
(0.0182724 -0.000708691 0)
(0.0183981 -0.000671224 0)
(0.0185167 -0.000634605 0)
(0.0186284 -0.000598997 0)
(0.0187333 -0.00056453 0)
(0.0188319 -0.000531298 0)
(0.0189244 -0.000499376 0)
(0.019011 -0.000468812 0)
(0.0190921 -0.000439637 0)
(0.0191679 -0.00041186 0)
(0.0192388 -0.00038548 0)
(0.0193049 -0.000360482 0)
(0.0193666 -0.000336844 0)
(0.0194242 -0.000314534 0)
(0.0194778 -0.000293513 0)
(0.0195278 -0.000273738 0)
(0.0195743 -0.000255165 0)
(0.0196175 -0.000237745 0)
(0.0196578 -0.000221426 0)
(0.0196953 -0.000206159 0)
(0.0197301 -0.000191893 0)
(0.0197625 -0.000178575 0)
(0.0197926 -0.000166159 0)
(0.0198205 -0.000154593 0)
(0.0198466 -0.00014383 0)
(0.0198707 -0.000133826 0)
(0.0198932 -0.000124537 0)
(0.0199141 -0.000115921 0)
(0.0199336 -0.000107938 0)
(0.0199517 -0.00010055 0)
(0.0199686 -9.37212e-05 0)
(0.0199843 -8.74186e-05 0)
(0.0199989 -8.16105e-05 0)
(0.0200126 -7.62671e-05 0)
(0.0200254 -7.13608e-05 0)
(0.0200374 -6.68664e-05 0)
(0.0200486 -6.27596e-05 0)
(0.0200592 -5.9019e-05 0)
(0.0200691 -5.56247e-05 0)
(0.0200784 -5.25581e-05 0)
(0.0200873 -4.98022e-05 0)
(0.0200957 -4.73418e-05 0)
(0.0201037 -4.51637e-05 0)
(0.0201113 -4.3256e-05 0)
(0.0201187 -4.1608e-05 0)
(0.0201257 -4.02108e-05 0)
(0.0201326 -3.90567e-05 0)
(0.0201392 -3.81395e-05 0)
(0.0201458 -3.74545e-05 0)
(0.0201522 -3.69981e-05 0)
(0.0201586 -3.67681e-05 0)
(0.0201649 -3.67646e-05 0)
(0.0201713 -3.69875e-05 0)
(0.0201777 -3.74384e-05 0)
(0.0201842 -3.81207e-05 0)