/*--------------------------------*- C++ -*----------------------------------*\
  =========                 |
  \\      /  F ield         | OpenFOAM: The Open Source CFD Toolbox
   \\    /   O peration     | Website:  https://openfoam.org
    \\  /    A nd           | Version:  dev
     \\/     M anipulation  |
\*---------------------------------------------------------------------------*/
FoamFile
{
    version     2.0;
    format      ascii;
    class       surfaceScalarField;
    location    "20";
    object      phi;
}
// * * * * * * * * * * * * * * * * * * * * * * * * * * * * * * * * * * * * * //

dimensions      [1 0 -1 0 0 0 0];

internalField   nonuniform List<scalar> 
15760
(
1.05377e-06
0.00115757
-3.91063e-06
0.00116358
-6.90203e-06
0.0011616
0.00114885
2.85272e-06
-2.15447e-06
0.00115972
-1.07474e-05
0.00117217
-1.98371e-05
0.00117069
0.00113987
-1.08645e-05
-6.37513e-06
0.0011661
-2.02234e-05
0.00118602
-3.73993e-05
0.00118786
0.00113118
-2.87072e-05
-1.02616e-05
0.00117636
-2.9164e-05
0.00120492
-5.42292e-05
0.00121293
0.0011294
-5.24497e-05
-1.21116e-05
0.00118847
-3.3468e-05
0.00122628
-6.36175e-05
0.00124308
0.00114122
-7.54374e-05
-8.88164e-06
0.00119735
-2.88991e-05
0.00124629
-5.98711e-05
0.00127405
0.00116923
-8.788e-05
3.27122e-07
0.00119702
-1.17023e-05
0.00125832
-3.5713e-05
0.00129806
0.00120916
-7.56472e-05
1.63727e-05
0.00118065
1.96801e-05
0.00125502
1.25053e-05
0.00130524
0.00124753
-2.58626e-05
3.8643e-05
0.00114201
6.4171e-05
0.00122949
8.15797e-05
0.00128783
0.00126682
6.22901e-05
6.43577e-05
0.00107765
0.000117182
0.00117666
0.000164418
0.00124059
0.00125236
0.000178881
8.92132e-05
0.000988437
0.000170828
0.00109505
0.000249892
0.00116153
0.00119239
0.000309858
0.000108583
0.000879854
0.000214127
0.000989506
0.000320005
0.00105565
0.00109329
0.000419106
0.00011904
0.000760815
0.000237588
0.000870958
0.000359645
0.000933594
0.000969356
0.000483579
0.000120307
0.000640507
0.000238191
0.000753073
0.000361295
0.000810492
0.00083818
0.000492471
0.000114344
0.000526164
0.000220303
0.000647114
0.000330932
0.000699862
0.000718226
0.000450887
0.000101574
0.00042459
0.000191126
0.000557562
0.000283618
0.000607369
0.000620606
0.000381239
8.12633e-05
0.000343327
0.000155546
0.00048328
0.000231124
0.00053179
0.000543734
0.000307997
5.63266e-05
0.000287
0.000117126
0.000422481
0.000179391
0.000469525
0.000481956
0.000241169
3.36995e-05
0.0002533
8.14663e-05
0.000374714
0.000133062
0.000417929
0.000430401
0.000184617
1.86598e-05
0.00023464
5.47296e-05
0.000338645
9.72819e-05
0.000375377
0.000386216
0.000141467
1.15173e-05
0.000223123
3.89914e-05
0.00031117
7.4099e-05
0.00034027
0.000348136
0.000112179
9.64899e-06
0.000213474
3.18572e-05
0.000288962
6.11443e-05
0.000310983
0.000315589
9.36909e-05
1.00493e-05
0.000203425
2.9242e-05
0.00026977
5.40438e-05
0.000286181
0.000288056
8.15771e-05
1.06541e-05
0.000192771
2.78947e-05
0.000252529
4.92181e-05
0.000264857
0.000264807
7.24668e-05
1.07601e-05
0.00018201
2.64134e-05
0.000236876
4.49811e-05
0.00024629
0.000245042
6.47463e-05
1.0425e-05
0.000171585
2.4633e-05
0.000222668
4.09374e-05
0.000229985
0.000228079
5.79003e-05
9.86165e-06
0.000161724
2.27269e-05
0.000209802
3.71094e-05
0.000215603
0.000213399
5.17897e-05
9.1989e-06
0.000152525
2.08236e-05
0.000198178
3.35442e-05
0.000202882
0.000200603
4.63398e-05
8.50085e-06
0.000144024
1.89844e-05
0.000187694
3.02567e-05
0.00019161
0.000189381
4.14789e-05
7.80253e-06
0.000136222
1.72382e-05
0.000178258
2.72428e-05
0.000181606
0.000179488
3.7136e-05
7.1269e-06
0.000129095
1.56021e-05
0.000169783
2.44913e-05
0.000172716
0.000170733
3.32463e-05
6.47955e-06
0.000122615
1.40763e-05
0.000162187
2.19807e-05
0.000164812
0.000162964
2.97493e-05
5.86516e-06
0.00011675
1.26589e-05
0.000155393
1.96871e-05
0.000157784
0.000156061
2.659e-05
5.2913e-06
0.000111459
1.13524e-05
0.000149332
1.75948e-05
0.000151541
0.00014993
2.37258e-05
4.75741e-06
0.000106701
1.015e-05
0.000143939
1.56821e-05
0.000146009
0.000144497
2.11151e-05
4.25406e-06
0.000102447
9.03053e-06
0.000139163
1.39144e-05
0.000141125
0.000139702
1.87095e-05
3.77348e-06
9.86736e-05
7.97441e-06
0.000134962
1.22598e-05
0.00013684
0.000135494
1.64677e-05
3.31435e-06
9.53592e-05
6.97384e-06
0.000131302
1.07023e-05
0.000133111
0.000131832
1.43649e-05
2.87763e-06
9.24816e-05
6.027e-06
0.000128153
9.2341e-06
0.000129904
0.00012868
1.23856e-05
2.46202e-06
9.00196e-05
5.12983e-06
0.000125485
7.8459e-06
0.000127188
0.000126012
1.05144e-05
2.06445e-06
8.79551e-05
4.27557e-06
0.000123274
6.52638e-06
0.000124937
0.000123803
8.73536e-06
1.68198e-06
8.62731e-05
3.45791e-06
0.000121498
5.26564e-06
0.00012313
0.000122033
7.03535e-06
1.31282e-06
8.49603e-05
2.67245e-06
0.000120138
4.05653e-06
0.000121746
0.000120685
5.40454e-06
9.55741e-07
8.40046e-05
1.91629e-06
0.000119178
2.89407e-06
0.000120768
0.000119743
3.83595e-06
6.10548e-07
8.3394e-05
1.18789e-06
0.000118601
1.77482e-06
0.000120181
0.000119193
2.32498e-06
2.77335e-07
8.31167e-05
4.85588e-07
0.000118392
6.96287e-07
0.00011997
0.00011902
8.69144e-07
-4.50305e-08
8.31617e-05
-1.92294e-07
0.00011854
-3.42254e-07
0.00012012
0.00011921
-5.31578e-07
-3.5435e-07
8.3516e-05
-8.40958e-07
0.000119026
-1.33636e-06
0.000120616
0.000119747
-1.87342e-06
-6.49807e-07
8.41658e-05
-1.45991e-06
0.000119836
-2.28475e-06
0.00012144
0.000120616
-3.15415e-06
-9.31526e-07
8.50973e-05
-2.04858e-06
0.000120953
-3.18619e-06
0.000122578
0.000121801
-4.37161e-06
-1.19856e-06
8.62959e-05
-2.6051e-06
0.00012236
-4.03782e-06
0.000124011
0.000123285
-5.52183e-06
-1.44982e-06
8.77457e-05
-3.12744e-06
0.000124037
-4.83656e-06
0.00012572
0.000125049
-6.60045e-06
-1.68421e-06
8.94299e-05
-3.61352e-06
0.000125967
-5.57928e-06
0.000127686
0.000127073
-7.60309e-06
-1.90072e-06
9.13306e-05
-4.06136e-06
0.000128127
-6.26298e-06
0.000129887
0.000129336
-8.52558e-06
-2.0984e-06
9.3429e-05
-4.46921e-06
0.000130498
-6.88501e-06
0.000132303
0.000131815
-9.36421e-06
-2.27649e-06
9.57055e-05
-4.83562e-06
0.000133057
-7.44317e-06
0.000134911
0.000134488
-1.01159e-05
-2.4344e-06
9.81399e-05
-5.15951e-06
0.000135782
-7.93585e-06
0.000137687
0.00013733
-1.07786e-05
-2.57176e-06
0.000100712
-5.44024e-06
0.000138651
-8.3621e-06
0.000140609
0.000140319
-1.13508e-05
-2.68843e-06
0.0001034
-5.67764e-06
0.00014164
-8.72169e-06
0.000143653
0.00014343
-1.18322e-05
-2.7845e-06
0.000106185
-5.87199e-06
0.000144728
-9.01514e-06
0.000146796
0.000146638
-1.22237e-05
-2.8603e-06
0.000109045
-6.02406e-06
0.000147891
-9.24367e-06
0.000150016
0.000149921
-1.25269e-05
-2.91638e-06
0.000111961
-6.13509e-06
0.00015111
-9.40922e-06
0.00015329
0.000153257
-1.27446e-05
-2.95349e-06
0.000114915
-6.2067e-06
0.000154363
-9.51437e-06
0.000156597
0.000156623
-1.28802e-05
-2.97258e-06
0.000117887
-6.24092e-06
0.000157632
-9.56225e-06
0.000159919
0.000159999
-1.29383e-05
-2.97474e-06
0.000120862
-6.24004e-06
0.000160897
-9.55647e-06
0.000163235
0.000163366
-1.29237e-05
-2.96115e-06
0.000123823
-6.20666e-06
0.000164142
-9.50106e-06
0.00016653
0.000166707
-1.2842e-05
-2.93315e-06
0.000126756
-6.14358e-06
0.000167353
-9.40037e-06
0.000169786
0.000170006
-1.26993e-05
-2.89215e-06
0.000129648
-6.05372e-06
0.000170514
-9.25892e-06
0.000172992
0.000173249
-1.25018e-05
-2.83957e-06
0.000132488
-5.94005e-06
0.000173615
-9.08129e-06
0.000176133
0.000176423
-1.22556e-05
-2.77685e-06
0.000135265
-5.80556e-06
0.000176644
-8.87209e-06
0.000179199
0.000179518
-1.19672e-05
-2.70539e-06
0.00013797
-5.6532e-06
0.000179591
-8.63588e-06
0.000182182
0.000182525
-1.16427e-05
-2.62656e-06
0.000140597
-5.48586e-06
0.000182451
-8.37703e-06
0.000185073
0.000185436
-1.12882e-05
-2.54171e-06
0.000143138
-5.30626e-06
0.000185215
-8.09978e-06
0.000187867
0.000188246
-1.09093e-05
-2.45207e-06
0.000145591
-5.11699e-06
0.00018788
-7.80809e-06
0.000190558
0.000190949
-1.05114e-05
-2.35882e-06
0.000147949
-4.92049e-06
0.000190442
-7.50564e-06
0.000193143
0.000193543
-1.00997e-05
-2.26303e-06
0.000150212
-4.71896e-06
0.000192898
-7.19585e-06
0.00019562
0.000196025
-9.67847e-06
-2.16568e-06
0.000152378
-4.51445e-06
0.000195247
-6.88179e-06
0.000197987
0.000198396
-9.25206e-06
-2.06765e-06
0.000154446
-4.30875e-06
0.000197488
-6.56622e-06
0.000200245
0.000200654
-8.82412e-06
-1.96972e-06
0.000156415
-4.10349e-06
0.000199621
-6.25159e-06
0.000202393
0.0002028
-8.39793e-06
-1.87258e-06
0.000158288
-3.90007e-06
0.000201649
-5.94003e-06
0.000204433
0.000204836
-7.97633e-06
-1.77683e-06
0.000160065
-3.69972e-06
0.000203572
-5.63337e-06
0.000206366
0.000206765
-7.56177e-06
-1.68297e-06
0.000161748
-3.50347e-06
0.000205392
-5.3332e-06
0.000208196
0.000208588
-7.15631e-06
-1.59142e-06
0.000163339
-3.31217e-06
0.000207113
-5.04078e-06
0.000209925
0.000210309
-6.76167e-06
-1.50252e-06
0.000164842
-3.12654e-06
0.000208737
-4.75717e-06
0.000211555
0.000211931
-6.3792e-06
-1.41656e-06
0.000166258
-2.94712e-06
0.000210268
-4.48322e-06
0.000213091
0.000213458
-6.01001e-06
-1.33375e-06
0.000167592
-2.77436e-06
0.000211708
-4.21955e-06
0.000214537
0.000214893
-5.65492e-06
-1.25424e-06
0.000168846
-2.60856e-06
0.000213063
-3.96662e-06
0.000215895
0.000216241
-5.3145e-06
-1.17814e-06
0.000170024
-2.44994e-06
0.000214334
-3.72474e-06
0.000217169
0.000217505
-4.98914e-06
-1.10552e-06
0.00017113
-2.29861e-06
0.000215527
-3.49406e-06
0.000218365
0.00021869
-4.67902e-06
-1.03639e-06
0.000172166
-2.15462e-06
0.000216646
-3.27465e-06
0.000219485
0.0002198
-4.38419e-06
-9.70746e-07
0.000173137
-2.01793e-06
0.000217693
-3.06645e-06
0.000220533
0.000220838
-4.10455e-06
-9.08567e-07
0.000174046
-1.88848e-06
0.000218673
-2.86933e-06
0.000221514
0.000221808
-3.83992e-06
-8.49781e-07
0.000174895
-1.76615e-06
0.000219589
-2.68308e-06
0.000222431
0.000222715
-3.58998e-06
-7.94322e-07
0.00017569
-1.65075e-06
0.000220446
-2.50746e-06
0.000223288
0.000223562
-3.35438e-06
-7.42097e-07
0.000176432
-1.54211e-06
0.000221246
-2.34216e-06
0.000224088
0.000224353
-3.13272e-06
-6.93004e-07
0.000177125
-1.44002e-06
0.000221993
-2.18684e-06
0.000224835
0.00022509
-2.92451e-06
-6.4694e-07
0.000177772
-1.34422e-06
0.00022269
-2.04115e-06
0.000225532
0.000225778
-2.72925e-06
-6.03781e-07
0.000178375
-1.25449e-06
0.000223341
-1.9047e-06
0.000226182
0.00022642
-2.54645e-06
-5.63407e-07
0.000178939
-1.17057e-06
0.000223948
-1.77712e-06
0.000226789
0.000227019
-2.37556e-06
-5.25708e-07
0.000179465
-1.09221e-06
0.000224514
-1.658e-06
0.000227354
0.000227577
-2.21605e-06
-4.90551e-07
0.000179955
-1.01915e-06
0.000225043
-1.54697e-06
0.000227882
0.000228097
-2.06739e-06
-4.57817e-07
0.000180413
-9.51144e-07
0.000225536
-1.44361e-06
0.000228375
0.000228583
-1.92905e-06
-4.27393e-07
0.00018084
-8.87938e-07
0.000225997
-1.34758e-06
0.000228834
0.000229035
-1.80052e-06
-3.99155e-07
0.000181239
-8.29296e-07
0.000226427
-1.25848e-06
0.000229263
0.000229458
-1.68131e-06
-3.73008e-07
0.000181612
-7.74984e-07
0.000226829
-1.17597e-06
0.000229664
0.000229853
-1.57092e-06
-3.48825e-07
0.000181961
-7.2478e-07
0.000227205
-1.09971e-06
0.000230039
0.000230222
-1.46889e-06
-3.26522e-07
0.000182288
-6.78467e-07
0.000227557
-1.02936e-06
0.00023039
0.000230568
-1.3748e-06
-3.05988e-07
0.000182594
-6.35844e-07
0.000227887
-9.64614e-07
0.000230719
0.000230891
-1.28821e-06
-2.87139e-07
0.000182881
-5.96725e-07
0.000228196
-9.05185e-07
0.000231027
0.000231195
-1.20873e-06
-2.69885e-07
0.000183151
-5.60917e-07
0.000228487
-8.50798e-07
0.000231317
0.00023148
-1.136e-06
-2.54147e-07
0.000183405
-5.28261e-07
0.000228761
-8.01194e-07
0.00023159
0.000231749
-1.06967e-06
-2.39849e-07
0.000183645
-4.98601e-07
0.00022902
-7.56137e-07
0.000231848
0.000232002
-1.00942e-06
-2.26925e-07
0.000183872
-4.71791e-07
0.000229265
-7.15412e-07
0.000232091
0.000232242
-9.5496e-07
-2.15309e-07
0.000184087
-4.47705e-07
0.000229497
-6.7881e-07
0.000232323
0.000232469
-9.06017e-07
-2.04944e-07
0.000184292
-4.26221e-07
0.000229719
-6.46153e-07
0.000232542
0.000232685
-8.62342e-07
-1.95776e-07
0.000184488
-4.07227e-07
0.00022993
-6.17284e-07
0.000232752
0.000232891
-8.23729e-07
-1.87765e-07
0.000184675
-3.90638e-07
0.000230133
-5.92051e-07
0.000232954
0.000233089
-7.89971e-07
-1.80871e-07
0.000184856
-3.76367e-07
0.000230328
-5.70335e-07
0.000233148
0.00023328
-7.60901e-07
-1.75052e-07
0.000185031
-3.64342e-07
0.000230518
-5.52026e-07
0.000233336
0.000233464
-7.36378e-07
-1.70293e-07
0.000185202
-3.54507e-07
0.000230702
-5.37021e-07
0.000233518
0.000233643
-7.16282e-07
-1.66558e-07
0.000185368
-3.4681e-07
0.000230882
-5.25265e-07
0.000233697
0.000233819
-7.00511e-07
-1.63835e-07
0.000185532
-3.41221e-07
0.00023106
-5.16701e-07
0.000233872
0.000233991
-6.88991e-07
-1.62119e-07
0.000185694
-3.37717e-07
0.000231235
-5.11294e-07
0.000234046
0.000234161
-6.81673e-07
-1.61405e-07
0.000185855
-3.36286e-07
0.00023141
-5.09019e-07
0.000234218
0.000234331
-6.78548e-07
-1.61693e-07
0.000186017
-3.36933e-07
0.000231585
-5.0989e-07
0.000234391
0.000234501
-6.79599e-07
-1.62978e-07
0.00018618
-3.39669e-07
0.000231762
-5.13914e-07
0.000234566
0.000234672
-6.84863e-07
-1.65277e-07
0.000186345
-3.44519e-07
0.000231941
-5.21127e-07
0.000234742
0.000234845
-6.94376e-07
-1.68606e-07
0.000186514
-3.51518e-07
0.000232124
-5.31591e-07
0.000234922
0.000235021
-7.08217e-07
-1.72999e-07
0.000186687
-3.60715e-07
0.000232312
-5.45388e-07
0.000235107
0.000235203
-7.26492e-07
-1.78484e-07
0.000186865
-3.72187e-07
0.000232506
-5.62613e-07
0.000235297
0.000235389
-7.49329e-07
-1.85102e-07
0.000187051
-3.86013e-07
0.000232706
-5.83385e-07
0.000235495
0.000235583
-7.7689e-07
-1.92901e-07
0.000187243
-4.02287e-07
0.000232916
-6.07858e-07
0.0002357
0.000235784
-8.09367e-07
-2.01928e-07
0.000187445
-4.21121e-07
0.000233135
-6.36193e-07
0.000235915
0.000235995
-8.46989e-07
-2.12258e-07
0.000187658
-4.42648e-07
0.000233365
-6.68591e-07
0.000236141
0.000236216
-8.90007e-07
-2.23949e-07
0.000187881
-4.67021e-07
0.000233608
-7.05273e-07
0.00023638
0.00023645
-9.38725e-07
-2.37098e-07
0.000188119
-4.94402e-07
0.000233866
-7.46498e-07
0.000236632
0.000236697
-9.93466e-07
-2.51787e-07
0.00018837
-5.2499e-07
0.000234139
-7.92535e-07
0.000236899
0.000236959
-1.05462e-06
-2.68123e-07
0.000188638
-5.5899e-07
0.00023443
-8.43716e-07
0.000237184
0.000237238
-1.1226e-06
-2.86221e-07
0.000188925
-5.96645e-07
0.00023474
-9.00392e-07
0.000237488
0.000237535
-1.19788e-06
-3.06209e-07
0.000189231
-6.3821e-07
0.000235072
-9.62967e-07
0.000237812
0.000237853
-1.28098e-06
-3.28229e-07
0.000189559
-6.83988e-07
0.000235428
-1.03187e-06
0.00023816
0.000238194
-1.37249e-06
-3.52442e-07
0.000189912
-7.34299e-07
0.00023581
-1.10759e-06
0.000238534
0.000238559
-1.47305e-06
-3.79021e-07
0.000190291
-7.89507e-07
0.00023622
-1.19067e-06
0.000238935
0.000238952
-1.58336e-06
-4.08161e-07
0.000190699
-8.50014e-07
0.000236662
-1.2817e-06
0.000239366
0.000239375
-1.70422e-06
-4.40082e-07
0.000191139
-9.16254e-07
0.000237138
-1.38135e-06
0.000239832
0.00023983
-1.83649e-06
-4.75016e-07
0.000191614
-9.88714e-07
0.000237652
-1.49033e-06
0.000240333
0.000240321
-1.98113e-06
-5.13233e-07
0.000192127
-1.06794e-06
0.000238207
-1.60945e-06
0.000240875
0.00024085
-2.13922e-06
-5.5502e-07
0.000192682
-1.15452e-06
0.000238806
-1.73961e-06
0.00024146
0.000241423
-2.3119e-06
-6.00712e-07
0.000193283
-1.24912e-06
0.000239455
-1.88179e-06
0.000242092
0.000242041
-2.50049e-06
-6.50661e-07
0.000193933
-1.35247e-06
0.000240157
-2.03706e-06
0.000242777
0.000242711
-2.70641e-06
-7.05269e-07
0.000194639
-1.46538e-06
0.000240917
-2.20665e-06
0.000243518
0.000243435
-2.93125e-06
-7.64978e-07
0.000195404
-1.58876e-06
0.00024174
-2.39188e-06
0.000244321
0.00024422
-3.17676e-06
-8.30291e-07
0.000196234
-1.7236e-06
0.000242634
-2.59424e-06
0.000245192
0.000245071
-3.44489e-06
-9.01753e-07
0.000197136
-1.87101e-06
0.000243603
-2.81537e-06
0.000246136
0.000245993
-3.73781e-06
-9.79982e-07
0.000198116
-2.03223e-06
0.000244655
-3.05712e-06
0.000247161
0.000246994
-4.05791e-06
-1.06567e-06
0.000199181
-2.20865e-06
0.000245798
-3.32151e-06
0.000248274
0.00024808
-4.40788e-06
-1.15959e-06
0.000200341
-2.40181e-06
0.00024704
-3.61086e-06
0.000249483
0.00024926
-4.7907e-06
-1.26261e-06
0.000201603
-2.61345e-06
0.000248391
-3.92769e-06
0.000250797
0.000250542
-5.20972e-06
-1.37573e-06
0.000202979
-2.84552e-06
0.000249861
-4.27489e-06
0.000252227
0.000251936
-5.66866e-06
-1.50002e-06
0.000204479
-3.1002e-06
0.000251461
-4.65567e-06
0.000253782
0.000253452
-6.17174e-06
-1.63674e-06
0.000206116
-3.37998e-06
0.000253204
-5.07367e-06
0.000255476
0.000255102
-6.72368e-06
-1.78732e-06
0.000207903
-3.68763e-06
0.000255105
-5.53298e-06
0.000257321
0.000256899
-7.32978e-06
-1.95335e-06
0.000209857
-4.02634e-06
0.000257178
-6.03823e-06
0.000259333
0.000258857
-7.99608e-06
-2.13668e-06
0.000211993
-4.3997e-06
0.000259441
-6.59468e-06
0.000261528
0.000260992
-8.7294e-06
-2.3394e-06
0.000214333
-4.81182e-06
0.000261913
-7.20835e-06
0.000263925
0.000263321
-9.53749e-06
-2.56394e-06
0.000216897
-5.26743e-06
0.000264617
-7.88608e-06
0.000266543
0.000265864
-1.04292e-05
-2.81307e-06
0.00021971
-5.77191e-06
0.000267575
-8.63572e-06
0.000269407
0.000268643
-1.14147e-05
-3.09e-06
0.0002228
-6.3315e-06
0.000270817
-9.46631e-06
0.000272542
0.000271682
-1.25055e-05
-3.39846e-06
0.000226198
-6.95341e-06
0.000274372
-1.03883e-05
0.000275977
0.000275009
-1.3715e-05
-3.74278e-06
0.000229941
-7.64596e-06
0.000278275
-1.14136e-05
0.000279744
0.000278654
-1.50588e-05
-4.12804e-06
0.000234069
-8.41892e-06
0.000282566
-1.25565e-05
0.000283882
0.000282652
-1.65547e-05
-4.56017e-06
0.000238629
-9.2837e-06
0.00028729
-1.38333e-05
0.000288432
0.000287042
-1.82238e-05
-5.04621e-06
0.000243675
-1.02537e-05
0.000292497
-1.52634e-05
0.000293441
0.00029187
-2.00905e-05
-5.59457e-06
0.00024927
-1.13449e-05
0.000298247
-1.68694e-05
0.000298966
0.000297184
-2.21837e-05
-6.21516e-06
0.000255485
-1.25761e-05
0.000304608
-1.86784e-05
0.000305068
0.000303043
-2.45377e-05
-6.91992e-06
0.000262405
-1.397e-05
0.000311658
-2.07227e-05
0.000311821
0.000309514
-2.71931e-05
-7.72302e-06
0.000270128
-1.55537e-05
0.000319489
-2.3041e-05
0.000319308
0.000316671
-3.01986e-05
-8.64256e-06
0.00027877
-1.73604e-05
0.000328207
-2.56803e-05
0.000327628
0.000324604
-3.36127e-05
-9.69793e-06
0.000288468
-1.94303e-05
0.000337939
-2.86975e-05
0.000336895
0.000333412
-3.75064e-05
-1.09208e-05
0.000299389
-2.18128e-05
0.000348831
-3.21625e-05
0.000347245
0.000343217
-4.19668e-05
-1.23305e-05
0.00031172
-2.45697e-05
0.00036107
-3.61621e-05
0.000358837
0.000354154
-4.70994e-05
-1.39971e-05
0.000325717
-2.77769e-05
0.00037485
-4.08037e-05
0.000371864
0.000366389
-5.30385e-05
-1.59161e-05
0.000341633
-3.15347e-05
0.000390469
-4.62242e-05
0.000386554
0.00038011
-5.99453e-05
-1.82488e-05
0.000359882
-3.59604e-05
0.00040818
-5.25954e-05
0.000403189
0.000395549
-6.8034e-05
-2.09435e-05
0.000380825
-4.12294e-05
0.000428466
-6.01404e-05
0.0004221
0.00041297
-7.75622e-05
-2.4289e-05
0.000405114
-4.75306e-05
0.000451708
-6.91484e-05
0.000443717
0.000432703
-8.88806e-05
-2.82343e-05
0.000433348
-5.51758e-05
0.000478649
-8.00029e-05
0.000468545
0.000455123
-0.000102423
-3.3204e-05
0.000466552
-6.451e-05
0.000509955
-9.32109e-05
0.000497245
0.000480697
-0.000118786
-3.9247e-05
0.000505799
-7.60917e-05
0.0005468
-0.000109471
0.000530625
0.000509958
-0.000138732
-4.70026e-05
0.000552802
-9.06144e-05
0.000590412
-0.000129728
0.000569738
0.000543557
-0.000163327
-5.68047e-05
0.000609607
-0.000109154
0.000642761
-0.000155329
0.000615914
0.000582209
-0.000193982
-6.96808e-05
0.000679288
-0.000133169
0.000706249
-0.000188163
0.000670908
0.000626746
-0.000232701
-8.6802e-05
0.00076609
-0.000164982
0.00078443
-0.000230999
0.000736925
0.00067797
-0.000282222
-0.000109731
0.00087582
-0.000207688
0.000882386
-0.000287973
0.000817211
0.000736592
-0.000346596
-0.000142415
0.00101824
-0.000266991
0.00100696
-0.000365097
0.000915318
0.000802793
-0.000431299
-0.000186164
0.0012044
-0.000349056
0.00116985
-0.000473011
0.00103927
0.000875741
-0.000545959
-0.000247567
0.00145197
-0.000466037
0.00138832
-0.000624288
0.00119752
0.000952231
-0.000700778
-0.000350889
0.00180286
-0.00064168
0.00167911
-0.000855596
0.00141144
0.00103043
-0.0009338
-0.000404756
0.00220761
-0.00081141
0.00208577
-0.00115255
0.00175258
0.00112802
-0.00125013
-0.000774215
-0.00141479
-0.00179751
-0.00196632
7.14968e-05
-6.86441e-05
0.000157851
-9.7219e-05
0.000261563
-0.000132419
0.000382726
-0.000173612
0.000514426
-0.000207138
0.000643963
-0.000217417
0.000758998
-0.000190682
0.000855355
-0.000122219
0.000938383
-2.07391e-05
0.001004
0.000113261
0.00102672
0.00028714
0.000989585
0.000456242
0.000908458
0.000564704
0.000802534
0.000598395
0.000692884
0.000560538
0.000599294
0.00047483
0.000526819
0.000380472
0.000469098
0.00029889
0.000420454
0.000233261
0.000377713
0.000184208
0.000340053
0.00014984
0.000307596
0.000126148
0.000280248
0.000108926
0.000257391
9.5324e-05
0.000238184
8.39532e-05
0.000221861
7.42236e-05
0.000207824
6.58265e-05
0.000195628
5.85361e-05
0.000184941
5.21658e-05
0.000175515
4.65612e-05
0.000167164
4.15976e-05
0.000159742
3.71716e-05
0.000153135
3.31971e-05
0.000147256
2.96046e-05
0.000142039
2.63324e-05
0.000137428
2.33204e-05
0.000133376
2.05194e-05
0.000129845
1.78961e-05
0.000126804
1.54264e-05
0.00012423
1.30886e-05
0.000122102
1.0863e-05
0.000120404
8.73347e-06
0.000119121
6.68795e-06
0.000118239
4.7179e-06
0.000117746
2.81804e-06
0.000117629
9.86034e-07
0.000117875
-7.77759e-07
0.000118471
-2.46983e-06
0.000119404
-4.08639e-06
0.000120656
-5.62397e-06
0.000122211
-7.07715e-06
0.000124051
-8.44003e-06
0.000126155
-9.70673e-06
0.000128501
-1.08717e-05
0.000131066
-1.193e-05
0.000133828
-1.28775e-05
0.000136761
-1.37114e-05
0.00013984
-1.44298e-05
0.00014304
-1.50325e-05
0.000146337
-1.55203e-05
0.000149705
-1.58955e-05
0.000153122
-1.61617e-05
0.000156566
-1.63236e-05
0.000160014
-1.63868e-05
0.000163448
-1.63579e-05
0.000166851
-1.62441e-05
0.000170204
-1.60532e-05
0.000173496
-1.57932e-05
0.000176713
-1.54723e-05
0.000179844
-1.50985e-05
0.000182881
-1.46797e-05
0.000185816
-1.42238e-05
0.000188645
-1.37379e-05
0.000191363
-1.32289e-05
0.000193966
-1.27032e-05
0.000196454
-1.21665e-05
0.000198826
-1.1624e-05
0.000201082
-1.10804e-05
0.000203224
-1.05398e-05
0.000205253
-1.00057e-05
0.000207173
-9.48113e-06
0.000208985
-8.96868e-06
0.000210694
-8.4704e-06
0.000212303
-7.98798e-06
0.000213815
-7.52273e-06
0.000215236
-7.07562e-06
0.000216569
-6.64732e-06
0.000217818
-6.23827e-06
0.000218988
-5.84865e-06
0.000220082
-5.47849e-06
0.000221105
-5.12762e-06
0.000222061
-4.79575e-06
0.000222953
-4.48249e-06
0.000223786
-4.18735e-06
0.000224563
-3.90977e-06
0.000225288
-3.64915e-06
0.000225964
-3.40486e-06
0.000226593
-3.17622e-06
0.00022718
-2.96256e-06
0.000227728
-2.76319e-06
0.000228238
-2.57743e-06
0.000228713
-2.40462e-06
0.000229157
-2.24411e-06
0.000229571
-2.09525e-06
0.000229957
-1.95745e-06
0.000230318
-1.83011e-06
0.000230656
-1.71268e-06
0.000230973
-1.60464e-06
0.000231269
-1.50549e-06
0.000231548
-1.41476e-06
0.000231811
-1.33203e-06
0.000232058
-1.25688e-06
0.000232292
-1.18895e-06
0.000232514
-1.12791e-06
0.000232725
-1.07344e-06
0.000232927
-1.02527e-06
0.00023312
-9.83159e-07
0.000233306
-9.46893e-07
0.000233486
-9.16285e-07
0.000233661
-8.91182e-07
0.000233832
-8.71466e-07
0.000234
-8.57048e-07
0.000234166
-8.4786e-07
0.000234331
-8.43878e-07
0.000234497
-8.45103e-07
0.000234663
-8.51551e-07
0.000234832
-8.63287e-07
0.000235004
-8.80399e-07
0.000235181
-9.03022e-07
0.000235363
-9.31315e-07
0.000235552
-9.65477e-07
0.000235748
-1.00575e-06
0.000235953
-1.05239e-06
0.000236169
-1.10575e-06
0.000236396
-1.16616e-06
0.000236637
-1.23406e-06
0.000236892
-1.3099e-06
0.000237164
-1.39422e-06
0.000237454
-1.48757e-06
0.000237763
-1.59063e-06
0.000238095
-1.70411e-06
0.000238451
-1.82879e-06
0.000238833
-1.96555e-06
0.000239244
-2.11537e-06
0.000239687
-2.27931e-06
0.000240164
-2.45856e-06
0.000240679
-2.65442e-06
0.000241236
-2.86835e-06
0.000241837
-3.10192e-06
0.000242488
-3.3569e-06
0.000243192
-3.63524e-06
0.000243954
-3.93909e-06
0.00024478
-4.27084e-06
0.000245675
-4.63314e-06
0.000246646
-5.02893e-06
0.0002477
-5.46148e-06
0.000248844
-5.93444e-06
0.000250086
-6.45189e-06
0.000251436
-7.01839e-06
0.000252903
-7.63904e-06
0.000254499
-8.31958e-06
0.000256236
-9.06646e-06
0.000258126
-9.88698e-06
0.000260186
-1.07894e-05
0.000262432
-1.1783e-05
0.000264881
-1.28786e-05
0.000267555
-1.40882e-05
0.000270475
-1.54258e-05
0.000273668
-1.69074e-05
0.00027716
-1.85515e-05
0.000280985
-2.03794e-05
0.000285177
-2.2416e-05
0.000289777
-2.46902e-05
0.000294829
-2.72363e-05
0.000300386
-3.00941e-05
0.000306504
-3.33114e-05
0.00031325
-3.69446e-05
0.000320699
-4.10615e-05
0.000328936
-4.57439e-05
0.00033806
-5.10905e-05
0.000348183
-5.72228e-05
0.000359433
-6.42877e-05
0.000371959
-7.24722e-05
0.000385925
-8.19998e-05
0.00040153
-9.31673e-05
0.000418979
-0.000106329
0.00043852
-0.000121965
0.000460396
-0.000140662
0.000484883
-0.000163218
0.000512197
-0.000190641
0.000542516
-0.0002243
0.000575787
-0.000265972
0.000611638
-0.000318073
0.000648843
-0.000383801
0.000684992
-0.000467447
0.000713814
-0.000574781
0.000725768
-0.000712733
0.000683364
-0.000891395
0.000544199
-0.00111097
-0.00142212
6.09077e-05
-0.000129552
0.000141535
-0.000177847
0.000234603
-0.000225487
0.000339161
-0.00027817
0.00045097
-0.000318947
0.000563861
-0.000330308
0.000667175
-0.000293997
0.000745703
-0.000200747
0.000791835
-6.68715e-05
0.00081794
8.71556e-05
0.000830659
0.000274422
0.000811615
0.000475287
0.000763837
0.000612481
0.000695989
0.000666243
0.0006154
0.000641128
0.000540667
0.000549563
0.000481629
0.00043951
0.000433757
0.000346762
0.00039198
0.000275039
0.000354043
0.000222145
0.000320036
0.000183847
0.00029065
0.000155534
0.000265957
0.000133619
0.000245344
0.000115936
0.000227983
0.000101315
0.000213153
8.90529e-05
0.000200323
7.86564e-05
0.000189109
6.97505e-05
0.000179228
6.20463e-05
0.00017047
5.53193e-05
0.000162674
4.93943e-05
0.000155714
4.41314e-05
0.000149494
3.94169e-05
0.00014394
3.51585e-05
0.000138995
3.12774e-05
0.000134612
2.77037e-05
0.00013075
2.43816e-05
0.000127377
2.12691e-05
0.000124469
1.83343e-05
0.000122007
1.55503e-05
0.000119976
1.2894e-05
0.000118363
1.03468e-05
0.000117156
7.8949e-06
0.000116345
5.52874e-06
0.000115921
3.24268e-06
0.000115872
1.03464e-06
0.000116189
-1.09434e-06
0.000116859
-3.14019e-06
0.00011787
-5.09731e-06
0.000119206
-6.96047e-06
0.000120852
-8.72245e-06
0.000122787
-1.03754e-05
0.000124992
-1.19117e-05
0.000127444
-1.33241e-05
0.00013012
-1.4606e-05
0.000132995
-1.57523e-05
0.000136043
-1.67592e-05
0.000139238
-1.76243e-05
0.000142552
-1.83472e-05
0.000145961
-1.89291e-05
0.000149438
-1.93729e-05
0.00015296
-1.9683e-05
0.000156501
-1.98654e-05
0.000160042
-1.99272e-05
0.000163561
-1.98768e-05
0.00016704
-1.97233e-05
0.000170463
-1.94762e-05
0.000173815
-1.91458e-05
0.000177085
-1.87419e-05
0.000180261
-1.82747e-05
0.000183336
-1.77541e-05
0.000186301
-1.71895e-05
0.000189153
-1.65897e-05
0.000191888
-1.59633e-05
0.000194502
-1.53178e-05
0.000196996
-1.46603e-05
0.000199369
-1.39971e-05
0.000201623
-1.33338e-05
0.000203758
-1.26752e-05
0.000205778
-1.20255e-05
0.000207685
-1.13884e-05
0.000209483
-1.07669e-05
0.000211176
-1.01633e-05
0.000212768
-9.57959e-06
0.000214262
-9.01729e-06
0.000215664
-8.47747e-06
0.000216978
-7.96087e-06
0.000218207
-7.46792e-06
0.000219358
-6.9988e-06
0.000220432
-6.55344e-06
0.000221436
-6.13161e-06
0.000222374
-5.7329e-06
0.000223248
-5.35679e-06
0.000224063
-5.00265e-06
0.000224823
-4.66977e-06
0.000225531
-4.3574e-06
0.000226191
-4.06474e-06
0.000226806
-3.79095e-06
0.000227379
-3.5352e-06
0.000227912
-3.29664e-06
0.000228409
-3.07446e-06
0.000228872
-2.86783e-06
0.000229304
-2.67595e-06
0.000229707
-2.49807e-06
0.000230083
-2.33343e-06
0.000230434
-2.18134e-06
0.000230763
-2.04112e-06
0.00023107
-1.91212e-06
0.000231358
-1.79376e-06
0.000231629
-1.68547e-06
0.000231884
-1.58674e-06
0.000232124
-1.49707e-06
0.000232351
-1.41602e-06
0.000232566
-1.34319e-06
0.000232771
-1.2782e-06
0.000232967
-1.22073e-06
0.000233154
-1.17049e-06
0.000233334
-1.1272e-06
0.000233509
-1.09067e-06
0.000233678
-1.06069e-06
0.000233844
-1.03713e-06
0.000234007
-1.01987e-06
0.000234168
-1.00884e-06
0.000234328
-1.00401e-06
0.000234488
-1.00537e-06
0.000234649
-1.01295e-06
0.000234813
-1.02682e-06
0.00023498
-1.04709e-06
0.00023515
-1.0739e-06
0.000235327
-1.10745e-06
0.000235509
-1.14798e-06
0.000235699
-1.19576e-06
0.000235898
-1.25112e-06
0.000236107
-1.31444e-06
0.000236327
-1.38616e-06
0.000236559
-1.46675e-06
0.000236806
-1.55676e-06
0.000237069
-1.65683e-06
0.000237349
-1.76764e-06
0.000237648
-1.88994e-06
0.000237969
-2.02459e-06
0.000238312
-2.17252e-06
0.000238682
-2.33477e-06
0.000239079
-2.51248e-06
0.000239506
-2.70692e-06
0.000239967
-2.91948e-06
0.000240464
-3.15169e-06
0.000241001
-3.40527e-06
0.000241582
-3.68208e-06
0.000242209
-3.98418e-06
0.000242887
-4.31388e-06
0.000243622
-4.67369e-06
0.000244418
-5.06642e-06
0.00024528
-5.49516e-06
0.000246214
-5.96336e-06
0.000247227
-6.47485e-06
0.000248327
-7.03389e-06
0.00024952
-7.64523e-06
0.000250816
-8.31417e-06
0.000252224
-9.04666e-06
0.000253753
-9.84934e-06
0.000255417
-1.07297e-05
0.000257226
-1.16962e-05
0.000259195
-1.27583e-05
0.000261339
-1.39268e-05
0.000263674
-1.5214e-05
0.00026622
-1.66338e-05
0.000268996
-1.82022e-05
0.000272026
-1.99373e-05
0.000275334
-2.18602e-05
0.00027895
-2.3995e-05
0.000282904
-2.63699e-05
0.000287231
-2.90174e-05
0.000291971
-3.19757e-05
0.000297166
-3.52895e-05
0.000302866
-3.90114e-05
0.000309125
-4.32037e-05
0.000316005
-4.79408e-05
0.000323572
-5.33112e-05
0.000331903
-5.94218e-05
0.000341081
-6.64013e-05
0.000351201
-7.44075e-05
0.000362359
-8.36303e-05
0.000374669
-9.43098e-05
0.000388234
-0.000106732
0.000403174
-0.000121269
0.000419577
-0.000138367
0.000437524
-0.000158609
0.00045701
-0.000182704
0.000477951
-0.000211582
0.000500033
-0.000246383
0.000522639
-0.000288578
0.000544542
-0.000339976
0.000563561
-0.00040282
0.000575863
-0.00047975
0.000574698
-0.000573615
0.000549322
-0.000687357