/*--------------------------------*- C++ -*----------------------------------*\
  =========                 |
  \\      /  F ield         | OpenFOAM: The Open Source CFD Toolbox
   \\    /   O peration     | Website:  https://openfoam.org
    \\  /    A nd           | Version:  dev
     \\/     M anipulation  |
\*---------------------------------------------------------------------------*/
FoamFile
{
    version     2.0;
    format      ascii;
    class       volVectorField;
    location    "20";
    object      U;
}
// * * * * * * * * * * * * * * * * * * * * * * * * * * * * * * * * * * * * * //

dimensions      [0 1 -1 0 0 0 0];

internalField   nonuniform List<vector> 
8000
(
(0.0997458 -3.141e-06 0)
(0.100093 -0.000140724 0)
(0.100057 -0.000320091 0)
(0.099848 -6.13185e-05 0)
(0.0998705 -4.7685e-05 0)
(0.100672 -0.000585538 0)
(0.100541 -0.00138635 0)
(0.0990335 -0.000478539 0)
(0.10029 -0.000142804 0)
(0.101656 -0.00113788 0)
(0.101618 -0.00287274 0)
(0.0980121 -0.00128677 0)
(0.101001 -0.000224827 0)
(0.103061 -0.0015817 0)
(0.103407 -0.00439421 0)
(0.0973228 -0.00232632 0)
(0.101943 -0.000247812 0)
(0.10482 -0.00165825 0)
(0.10581 -0.00540486 0)
(0.0975289 -0.0031158 0)
(0.103042 -2.65892e-05 0)
(0.106686 -0.00108554 0)
(0.108512 -0.00531333 0)
(0.0991228 -0.00330546 0)
(0.103434 0.000269214 0)
(0.10821 0.000398376 0)
(0.111063 -0.00364554 0)
(0.102088 -0.0019875 0)
(0.102932 0.000786798 0)
(0.108774 0.0027384 0)
(0.112699 -8.70577e-05 0)
(0.105988 0.00159698 0)
(0.10079 0.00156301 0)
(0.107742 0.0056667 0)
(0.112515 0.00529901 0)
(0.109035 0.00751289 0)
(0.0964906 0.00262202 0)
(0.104548 0.00880896 0)
(0.109894 0.0117719 0)
(0.109689 0.0154381 0)
(0.0898731 0.00390215 0)
(0.0988249 0.0116958 0)
(0.104502 0.0182147 0)
(0.106759 0.0242711 0)
(0.0811837 0.00521094 0)
(0.0906213 0.0138361 0)
(0.0963947 0.0231792 0)
(0.0997435 0.032118 0)
(0.0710767 0.00624697 0)
(0.0806451 0.0148827 0)
(0.0862619 0.0256797 0)
(0.0896071 0.0367544 0)
(0.060361 0.00678464 0)
(0.0698744 0.0147404 0)
(0.0751147 0.0256285 0)
(0.0779951 0.0370528 0)
(0.0500542 0.00673122 0)
(0.0599539 0.0136936 0)
(0.064707 0.0235911 0)
(0.0666076 0.0337557 0)
(0.0405061 0.00597201 0)
(0.0515009 0.0120767 0)
(0.055915 0.0203793 0)
(0.0571481 0.028703 0)
(0.0324386 0.00448177 0)
(0.0445044 0.0099392 0)
(0.0487462 0.0166454 0)
(0.0497576 0.0232987 0)
(0.026577 0.00269096 0)
(0.0387461 0.00736897 0)
(0.0428901 0.0127861 0)
(0.0439262 0.0181948 0)
(0.0229176 0.00125871 0)
(0.0341234 0.00486042 0)
(0.0380507 0.00923238 0)
(0.0391429 0.0137478 0)
(0.0208587 0.00047938 0)
(0.0305748 0.00300753 0)
(0.034046 0.00648977 0)
(0.0350748 0.0103206 0)
(0.0196786 0.00021027 0)
(0.0278978 0.00200312 0)
(0.0307316 0.00477082 0)
(0.0315466 0.00804041 0)
(0.018819 0.00020689 0)
(0.0257998 0.00164388 0)
(0.0279777 0.00388976 0)
(0.0285071 0.00668064 0)
(0.0179834 0.000285857 0)
(0.0240441 0.001599 0)
(0.0256694 0.00347866 0)
(0.0259326 0.00585724 0)
(0.0170906 0.000344579 0)
(0.0224902 0.00161354 0)
(0.0237027 0.00323065 0)
(0.0237647 0.00526333 0)
(0.0161578 0.000365932 0)
(0.0210788 0.00158496 0)
(0.0219974 0.00300233 0)
(0.0219285 0.00475353 0)
(0.0152399 0.000363875 0)
(0.0197947 0.00151042 0)
(0.0205032 0.00276648 0)
(0.0203585 0.00428743 0)
(0.0143638 0.000350832 0)
(0.0186303 0.00141205 0)
(0.0191867 0.00253196 0)
(0.0190041 0.00385976 0)
(0.0135416 0.000332447 0)
(0.0175768 0.00130491 0)
(0.0180232 0.00230681 0)
(0.0178268 0.00346974 0)
(0.012779 0.000311387 0)
(0.016626 0.0011965 0)
(0.0169929 0.00209455 0)
(0.016797 0.00311579 0)
(0.0120765 0.000289248 0)
(0.0157689 0.0010907 0)
(0.0160788 0.00189638 0)
(0.0158908 0.00279552 0)
(0.0114342 0.000267174 0)
(0.0149986 0.000989952 0)
(0.0152671 0.00171279 0)
(0.0150901 0.00250614 0)
(0.0108476 0.000245327 0)
(0.014307 0.000894902 0)
(0.0145453 0.00154309 0)
(0.0143802 0.00224436 0)
(0.0103166 0.0002241 0)
(0.0136881 0.00080591 0)
(0.0139033 0.00138638 0)
(0.0137496 0.00200687 0)
(0.00983667 0.000204058 0)
(0.0131353 0.000723513 0)
(0.0133328 0.00124237 0)
(0.0131892 0.00179123 0)
(0.00940388 0.000185216 0)
(0.0126424 0.000647501 0)
(0.0128263 0.00111009 0)
(0.0126918 0.00159465 0)
(0.0090158 0.00016709 0)
(0.0122047 0.000576581 0)
(0.0123782 0.000987227 0)
(0.0122517 0.00141343 0)
(0.00867022 0.000149425 0)
(0.0118184 0.000509499 0)
(0.0119838 0.00087159 0)
(0.0118645 0.00124433 0)
(0.00836514 0.000132347 0)
(0.0114802 0.000445841 0)
(0.011639 0.000762166 0)
(0.0115259 0.00108561 0)
(0.00809865 0.000116003 0)
(0.0111872 0.000385597 0)
(0.0113406 0.000658624 0)
(0.0112328 0.000936253 0)
(0.00786888 0.000100337 0)
(0.010937 0.000328553 0)
(0.0110859 0.000560483 0)
(0.0109824 0.000795156 0)
(0.00767414 8.52218e-05 0)
(0.0107272 0.000274261 0)
(0.0108723 0.000467017 0)
(0.0107726 0.000661113 0)
(0.007513 7.05397e-05 0)
(0.0105558 0.000222291 0)
(0.0106978 0.000377561 0)
(0.0106016 0.000533101 0)
(0.00738425 5.62615e-05 0)
(0.0104211 0.000172343 0)
(0.0105607 0.000291635 0)
(0.0104677 0.000410381 0)
(0.00728681 4.23386e-05 0)
(0.0103215 0.000124232 0)
(0.0104594 0.000208918 0)
(0.0103694 0.000292419 0)
(0.00721966 2.87945e-05 0)
(0.0102557 7.78788e-05 0)
(0.0103924 0.000129204 0)
(0.0103055 0.000178843 0)
(0.0071818 1.56845e-05 0)
(0.0102222 3.31561e-05 0)
(0.0103584 5.23446e-05 0)
(0.0102748 6.94112e-05 0)
(0.00717208 2.91561e-06 0)
(0.01022 -1.01209e-05 0)
(0.0103562 -2.17189e-05 0)
(0.010276 -3.59058e-05 0)
(0.00718971 -9.56289e-06 0)
(0.0102478 -5.14648e-05 0)
(0.0103846 -9.2604e-05 0)
(0.0103078 -0.000136753 0)
(0.00723342 -2.14617e-05 0)
(0.0103042 -9.09415e-05 0)
(0.010442 -0.000160232 0)
(0.0103689 -0.000232985 0)
(0.007302 -3.2869e-05 0)
(0.0103878 -0.000128519 0)
(0.0105271 -0.000224525 0)
(0.010458 -0.000324458 0)
(0.00739424 -4.37397e-05 0)
(0.0104971 -0.000164074 0)
(0.0106384 -0.000285284 0)
(0.0105736 -0.00041088 0)
(0.00750884 -5.40203e-05 0)
(0.0106306 -0.000197472 0)
(0.0107744 -0.000342289 0)
(0.0107142 -0.000491932 0)
(0.00764438 -6.36583e-05 0)
(0.0107866 -0.000228576 0)
(0.0109334 -0.000395319 0)
(0.0108781 -0.00056729 0)
(0.00779938 -7.26056e-05 0)
(0.0109635 -0.000257256 0)
(0.0111136 -0.00044416 0)
(0.0110634 -0.000636647 0)
(0.00797223 -8.08169e-05 0)
(0.0111594 -0.000283399 0)
(0.0113132 -0.00048862 0)
(0.0112684 -0.00069973 0)
(0.00816129 -8.82544e-05 0)
(0.0113725 -0.000306907 0)
(0.0115304 -0.000528543 0)
(0.0114911 -0.000756314 0)
(0.00836484 -9.48886e-05 0)
(0.0116009 -0.000327711 0)
(0.0117631 -0.000563812 0)
(0.0117295 -0.000806233 0)
(0.00858112 -0.000100699 0)
(0.0118426 -0.000345766 0)
(0.0120093 -0.00059436 0)
(0.0119815 -0.000849392 0)
(0.00880835 -0.000105675 0)
(0.0120957 -0.000361058 0)
(0.0122671 -0.000620169 0)
(0.012245 -0.000885765 0)
(0.00904474 -0.000109817 0)
(0.0123582 -0.000373605 0)
(0.0125344 -0.000641272 0)
(0.012518 -0.000915406 0)
(0.00928854 -0.000113135 0)
(0.0126282 -0.000383454 0)
(0.0128092 -0.000657756 0)
(0.0127984 -0.000938442 0)
(0.00953802 -0.000115646 0)
(0.0129039 -0.000390681 0)
(0.0130897 -0.000669754 0)
(0.0130843 -0.000955072 0)
(0.0097915 -0.000117381 0)
(0.0131834 -0.000395388 0)
(0.013374 -0.00067745 0)
(0.0133738 -0.000965561 0)
(0.0100474 -0.000118375 0)
(0.0134651 -0.000397705 0)
(0.0136603 -0.000681063 0)
(0.0136649 -0.00097023 0)
(0.0103042 -0.000118671 0)
(0.0137472 -0.000397776 0)
(0.0139469 -0.000680847 0)
(0.0139561 -0.00096945 0)
(0.0105605 -0.000118315 0)
(0.0140283 -0.000395765 0)
(0.0142323 -0.000677087 0)
(0.0142458 -0.000963633 0)
(0.0108149 -0.000117361 0)
(0.0143071 -0.000391849 0)
(0.0145152 -0.000670091 0)
(0.0145325 -0.000953225 0)
(0.0110664 -0.000115867 0)
(0.0145822 -0.000386216 0)
(0.0147942 -0.000660179 0)
(0.0148149 -0.000938686 0)
(0.0113138 -0.000113889 0)
(0.0148525 -0.000379054 0)
(0.0150682 -0.000647675 0)
(0.0150919 -0.000920484 0)
(0.0115563 -0.000111487 0)
(0.0151171 -0.000370556 0)
(0.0153361 -0.000632908 0)
(0.0153626 -0.00089909 0)
(0.0117929 -0.000108717 0)
(0.0153751 -0.000360907 0)
(0.0155973 -0.000616201 0)
(0.0156259 -0.000874968 0)
(0.012023 -0.000105637 0)
(0.0156257 -0.000350292 0)
(0.0158508 -0.000597867 0)
(0.0158814 -0.000848566 0)
(0.0122461 -0.000102301 0)
(0.0158684 -0.000338886 0)
(0.0160961 -0.000578206 0)
(0.0161283 -0.000820311 0)
(0.0124616 -9.87597e-05 0)
(0.0161028 -0.000326855 0)
(0.0163328 -0.0005575 0)
(0.0163662 -0.000790609 0)
(0.0126692 -9.50623e-05 0)
(0.0163283 -0.000314354 0)
(0.0165605 -0.000536014 0)
(0.0165948 -0.000759833 0)
(0.0128686 -9.12527e-05 0)
(0.0165448 -0.000301524 0)
(0.016779 -0.000513991 0)
(0.0168138 -0.00072833 0)
(0.0130597 -8.73713e-05 0)
(0.0167522 -0.000288498 0)
(0.016988 -0.000491649 0)
(0.0170232 -0.000696409 0)
(0.0132424 -8.34547e-05 0)
(0.0169502 -0.00027539 0)
(0.0171876 -0.000469188 0)
(0.0172229 -0.000664352 0)
(0.0134166 -7.9535e-05 0)
(0.017139 -0.000262304 0)
(0.0173776 -0.000446782 0)
(0.017413 -0.000632406 0)
(0.0135824 -7.5641e-05 0)
(0.0173185 -0.000249331 0)
(0.0175583 -0.000424584 0)
(0.0175934 -0.000600786 0)
(0.0137398 -7.17972e-05 0)
(0.0174889 -0.000236549 0)
(0.0177298 -0.000402727 0)
(0.0177644 -0.000569677 0)
(0.0138891 -6.80251e-05 0)
(0.0176504 -0.000224024 0)
(0.0178921 -0.000381324 0)
(0.0179263 -0.000539237 0)
(0.0140303 -6.43422e-05 0)
(0.0178032 -0.000211813 0)
(0.0180456 -0.000360466 0)
(0.0180792 -0.000509594 0)
(0.0141638 -6.07632e-05 0)
(0.0179475 -0.00019996 0)
(0.0181905 -0.00034023 0)
(0.0182234 -0.000480854 0)
(0.0142897 -5.72995e-05 0)
(0.0180835 -0.000188502 0)
(0.0183271 -0.000320677 0)
(0.0183592 -0.000453102 0)
(0.0144084 -5.39602e-05 0)
(0.0182117 -0.000177466 0)
(0.0184557 -0.000301852 0)
(0.0184869 -0.000426398 0)
(0.01452 -5.07522e-05 0)
(0.0183322 -0.000166873 0)
(0.0185766 -0.00028379 0)
(0.018607 -0.00040079 0)
(0.0146249 -4.76801e-05 0)
(0.0184455 -0.000156737 0)
(0.0186902 -0.000266513 0)
(0.0187196 -0.000376306 0)
(0.0147234 -4.47466e-05 0)
(0.0185518 -0.000147065 0)
(0.0187967 -0.000250032 0)
(0.0188253 -0.000352963 0)
(0.0148158 -4.19531e-05 0)
(0.0186515 -0.000137861 0)
(0.0188966 -0.000234353 0)
(0.0189242 -0.000330764 0)
(0.0149023 -3.92996e-05 0)
(0.0187449 -0.000129122 0)
(0.0189901 -0.000219472 0)
(0.0190169 -0.000309704 0)
(0.0149834 -3.6785e-05 0)
(0.0188323 -0.000120846 0)
(0.0190776 -0.00020538 0)
(0.0191035 -0.000289769 0)
(0.0150592 -3.44067e-05 0)
(0.0189141 -0.000113023 0)
(0.0191594 -0.000192065 0)
(0.0191844 -0.000270937 0)
(0.0151301 -3.21623e-05 0)
(0.0189905 -0.000105643 0)
(0.0192359 -0.000179506 0)
(0.0192601 -0.000253182 0)
(0.0151964 -3.0048e-05 0)
(0.019062 -9.86943e-05 0)
(0.0193074 -0.000167684 0)
(0.0193307 -0.000236474 0)
(0.0152583 -2.80599e-05 0)
(0.0191287 -9.21634e-05 0)
(0.0193741 -0.000156575 0)
(0.0193966 -0.000220777 0)
(0.0153161 -2.6194e-05 0)
(0.0191909 -8.60355e-05 0)
(0.0194363 -0.000146152 0)
(0.0194581 -0.000206054 0)
(0.01537 -2.44451e-05 0)
(0.0192491 -8.02951e-05 0)
(0.0194944 -0.00013639 0)
(0.0195154 -0.000192268 0)
(0.0154203 -2.28088e-05 0)
(0.0193033 -7.49258e-05 0)
(0.0195486 -0.000127261 0)
(0.0195689 -0.000179378 0)
(0.0154673 -2.12805e-05 0)
(0.0193539 -6.99121e-05 0)
(0.0195991 -0.000118737 0)
(0.0196187 -0.000167346 0)
(0.0155111 -1.98549e-05 0)
(0.0194011 -6.52374e-05 0)
(0.0196463 -0.000110791 0)
(0.0196652 -0.00015613 0)
(0.015552 -1.85271e-05 0)
(0.0194452 -6.08855e-05 0)
(0.0196903 -0.000103394 0)
(0.0197086 -0.000145692 0)
(0.0155902 -1.72926e-05 0)
(0.0194863 -5.68407e-05 0)
(0.0197313 -9.65203e-05 0)
(0.0197491 -0.000135994 0)
(0.0156258 -1.61464e-05 0)
(0.0195247 -5.30877e-05 0)
(0.0197697 -9.01427e-05 0)
(0.0197868 -0.000126997 0)
(0.0156591 -1.50848e-05 0)
(0.0195606 -4.96119e-05 0)
(0.0198055 -8.42363e-05 0)
(0.0198221 -0.000118665 0)
(0.0156902 -1.41026e-05 0)
(0.0195941 -4.63985e-05 0)
(0.0198389 -7.87768e-05 0)
(0.019855 -0.000110965 0)
(0.0157193 -1.31964e-05 0)
(0.0196255 -4.34345e-05 0)
(0.0198702 -7.37405e-05 0)
(0.0198858 -0.000103862 0)
(0.0157466 -1.23615e-05 0)
(0.0196549 -4.07064e-05 0)
(0.0198995 -6.91057e-05 0)
(0.0199147 -9.7326e-05 0)
(0.0157722 -1.15945e-05 0)
(0.0196825 -3.82025e-05 0)
(0.019927 -6.48515e-05 0)
(0.0199417 -9.13262e-05 0)
(0.0157962 -1.0892e-05 0)
(0.0197084 -3.59106e-05 0)
(0.0199528 -6.09578e-05 0)
(0.0199671 -8.58357e-05 0)
(0.0158188 -1.02508e-05 0)
(0.0197327 -3.38206e-05 0)
(0.019977 -5.74067e-05 0)
(0.019991 -8.08282e-05 0)
(0.0158401 -9.66772e-06 0)
(0.0197557 -3.19222e-05 0)
(0.0199999 -5.41812e-05 0)
(0.0200135 -7.62799e-05 0)
(0.0158602 -9.14007e-06 0)
(0.0197774 -3.02064e-05 0)
(0.0200215 -5.12657e-05 0)
(0.0200347 -7.21685e-05 0)
(0.0158793 -8.66502e-06 0)
(0.019798 -2.86649e-05 0)
(0.020042 -4.8646e-05 0)
(0.0200548 -6.84737e-05 0)
(0.0158974 -8.24023e-06 0)
(0.0198176 -2.729e-05 0)
(0.0200614 -4.63089e-05 0)
(0.020074 -6.51768e-05 0)
(0.0159147 -7.86369e-06 0)
(0.0198362 -2.60746e-05 0)
(0.02008 -4.42429e-05 0)
(0.0200922 -6.22622e-05 0)
(0.0159312 -7.5338e-06 0)
(0.0198541 -2.50131e-05 0)
(0.0200977 -4.24377e-05 0)
(0.0201096 -5.97145e-05 0)
(0.0159471 -7.24893e-06 0)
(0.0198712 -2.41002e-05 0)
(0.0201147 -4.08844e-05 0)
(0.0201264 -5.75213e-05 0)
(0.0159624 -7.00724e-06 0)
(0.0198878 -2.33309e-05 0)
(0.0201312 -3.95753e-05 0)
(0.0201425 -5.56718e-05 0)
(0.0159773 -6.80792e-06 0)
(0.0199039 -2.27022e-05 0)
(0.0201471 -3.85035e-05 0)
(0.0201582 -5.41564e-05 0)
(0.0159918 -6.64942e-06 0)
(0.0199196 -2.22102e-05 0)
(0.0201627 -3.76644e-05 0)
(0.0201735 -5.29681e-05 0)
(0.0160061 -6.5313e-06 0)
(0.0199351 -2.18534e-05 0)
(0.020178 -3.70542e-05 0)
(0.0201884 -5.21013e-05 0)
(0.0160201 -6.45356e-06 0)
(0.0199503 -2.16304e-05 0)
(0.020193 -3.66703e-05 0)
(0.0202032 -5.15526e-05 0)
(0.0160341 -6.41603e-06 0)
(0.0199654 -2.15405e-05 0)
(0.0202079 -3.65111e-05 0)
(0.0202179 -5.13203e-05 0)
(0.016048 -6.4186e-06 0)
(0.0199805 -2.15839e-05 0)
(0.0202228 -3.65776e-05 0)
(0.0202325 -5.14046e-05 0)
(0.016062 -6.46083e-06 0)
(0.0199956 -2.17609e-05 0)
(0.0202378 -3.68706e-05 0)
(0.0202472 -5.18071e-05 0)
(0.0160762 -6.54327e-06 0)
(0.020011 -2.20733e-05 0)
(0.0202529 -3.73926e-05 0)
(0.020262 -5.25312e-05 0)
(0.0160905 -6.66652e-06 0)
(0.0200266 -2.25234e-05 0)
(0.0202683 -3.81481e-05 0)
(0.0202771 -5.35827e-05 0)
(0.0161053 -6.83209e-06 0)
(0.0200426 -2.31147e-05 0)
(0.020284 -3.91423e-05 0)
(0.0202925 -5.49699e-05 0)
(0.0161204 -7.04104e-06 0)
(0.020059 -2.38519e-05 0)
(0.0203002 -4.0383e-05 0)
(0.0203084 -5.67024e-05 0)
(0.0161361 -7.29501e-06 0)
(0.020076 -2.47401e-05 0)
(0.0203169 -4.18786e-05 0)
(0.0203247 -5.87925e-05 0)
(0.0161524 -7.59581e-06 0)
(0.0200937 -2.57855e-05 0)
(0.0203343 -4.36398e-05 0)
(0.0203418 -6.1255e-05 0)
(0.0161694 -7.94511e-06 0)
(0.0201122 -2.69951e-05 0)
(0.0203524 -4.56786e-05 0)
(0.0203595 -6.41068e-05 0)
(0.0161872 -8.34582e-06 0)
(0.0201315 -2.83779e-05 0)
(0.0203714 -4.80095e-05 0)
(0.0203782 -6.73674e-05 0)
(0.016206 -8.80032e-06 0)
(0.0201519 -2.9943e-05 0)
(0.0203914 -5.06484e-05 0)
(0.0203978 -7.10595e-05 0)
(0.0162259 -9.31259e-06 0)
(0.0201735 -3.17018e-05 0)
(0.0204125 -5.36137e-05 0)
(0.0204185 -7.52083e-05 0)
(0.016247 -9.88599e-06 0)
(0.0201964 -3.36664e-05 0)
(0.0204349 -5.69254e-05 0)
(0.0204404 -7.98424e-05 0)
(0.0162694 -1.05247e-05 0)
(0.0202207 -3.58503e-05 0)
(0.0204587 -6.06069e-05 0)
(0.0204637 -8.4994e-05 0)
(0.0162933 -1.12332e-05 0)
(0.0202466 -3.82689e-05 0)
(0.0204841 -6.46838e-05 0)
(0.0204886 -9.06986e-05 0)
(0.0163188 -1.20165e-05 0)
(0.0202743 -4.09391e-05 0)
(0.0205112 -6.91847e-05 0)
(0.0205151 -9.69965e-05 0)
(0.0163461 -1.28801e-05 0)
(0.0203039 -4.388e-05 0)
(0.0205401 -7.41412e-05 0)
(0.0205435 -0.000103931 0)
(0.0163755 -1.38306e-05 0)
(0.0203357 -4.71127e-05 0)
(0.0205712 -7.95886e-05 0)
(0.0205739 -0.000111552 0)
(0.016407 -1.48749e-05 0)
(0.0203698 -5.06604e-05 0)
(0.0206046 -8.55657e-05 0)
(0.0206066 -0.000119913 0)
(0.0164409 -1.6021e-05 0)
(0.0204066 -5.45491e-05 0)
(0.0206405 -9.21155e-05 0)
(0.0206417 -0.000129073 0)
(0.0164774 -1.72775e-05 0)
(0.0204461 -5.8807e-05 0)
(0.0206791 -9.92856e-05 0)
(0.0206795 -0.0001391 0)
(0.0165169 -1.86539e-05 0)
(0.0204888 -6.34656e-05 0)
(0.0207208 -0.000107128 0)
(0.0207203 -0.000150065 0)
(0.0165595 -2.0161e-05 0)
(0.0205348 -6.85599e-05 0)
(0.0207657 -0.000115702 0)
(0.0207642 -0.000162049 0)
(0.0166055 -2.18104e-05 0)
(0.0205845 -7.41284e-05 0)
(0.0208143 -0.000125071 0)
(0.0208117 -0.000175142 0)
(0.0166553 -2.36156e-05 0)
(0.0206383 -8.02145e-05 0)
(0.0208667 -0.000135306 0)
(0.020863 -0.000189443 0)
(0.0167092 -2.55911e-05 0)
(0.0206965 -8.6865e-05 0)
(0.0209235 -0.000146486 0)
(0.0209185 -0.000205059 0)
(0.0167676 -2.77531e-05 0)
(0.0207595 -9.41327e-05 0)
(0.0209849 -0.000158698 0)
(0.0209786 -0.000222113 0)
(0.016831 -3.01196e-05 0)
(0.0208277 -0.000102076 0)
(0.0210515 -0.00017204 0)
(0.0210436 -0.000240737 0)
(0.0168997 -3.27113e-05 0)
(0.0209017 -0.00011076 0)
(0.0211236 -0.000186617 0)
(0.0211141 -0.000261081 0)
(0.0169743 -3.55504e-05 0)
(0.0209819 -0.000120257 0)
(0.0212018 -0.000202551 0)
(0.0211905 -0.000283309 0)
(0.0170554 -3.86623e-05 0)
(0.021069 -0.000130648 0)
(0.0212867 -0.000219974 0)
(0.0212734 -0.000307604 0)
(0.0171435 -4.20753e-05 0)
(0.0211636 -0.000142023 0)
(0.0213788 -0.000239034 0)
(0.0213633 -0.000334172 0)
(0.0172394 -4.58215e-05 0)
(0.0212664 -0.000154482 0)
(0.0214788 -0.000259898 0)
(0.021461 -0.00036324 0)
(0.0173438 -4.99374e-05 0)
(0.0213781 -0.00016814 0)
(0.0215875 -0.000282751 0)
(0.021567 -0.000395063 0)
(0.0174574 -5.4464e-05 0)
(0.0214996 -0.000183124 0)
(0.0217057 -0.000307801 0)
(0.0216823 -0.000429928 0)
(0.0175813 -5.94468e-05 0)
(0.0216319 -0.000199578 0)
(0.0218343 -0.000335284 0)
(0.0218077 -0.000468156 0)
(0.0177164 -6.49387e-05 0)
(0.0217759 -0.000217662 0)
(0.0219743 -0.000365463 0)
(0.0219441 -0.000510109 0)
(0.0178639 -7.09992e-05 0)
(0.0219329 -0.00023756 0)
(0.0221268 -0.000398636 0)
(0.0220926 -0.000556195 0)
(0.0180251 -7.76959e-05 0)
(0.022104 -0.000259481 0)
(0.0222929 -0.000435143 0)
(0.0222543 -0.000606876 0)
(0.0182013 -8.51069e-05 0)
(0.0222908 -0.000283662 0)
(0.0224741 -0.000475368 0)
(0.0224306 -0.000662675 0)
(0.0183941 -9.33221e-05 0)
(0.0224948 -0.000310374 0)
(0.0226719 -0.000519748 0)
(0.0226229 -0.00072419 0)
(0.0186052 -0.000102445 0)
(0.0227177 -0.000339926 0)
(0.022888 -0.000568787 0)
(0.0228328 -0.0007921 0)
(0.0188368 -0.000112595 0)
(0.0229616 -0.000372677 0)
(0.0231241 -0.000623058 0)
(0.0230621 -0.000867185 0)
(0.0190911 -0.000123911 0)
(0.0232287 -0.000409038 0)
(0.0233825 -0.000683224 0)
(0.0233127 -0.00095034 0)
(0.0193705 -0.000136555 0)
(0.0235214 -0.000449486 0)
(0.0236655 -0.00075005 0)
(0.0235869 -0.0010426 0)
(0.019678 -0.000150716 0)
(0.0238426 -0.000494575 0)
(0.0239757 -0.000824422 0)
(0.0238872 -0.00114515 0)
(0.0200169 -0.000166615 0)
(0.0241955 -0.000544953 0)
(0.0243161 -0.000907373 0)
(0.0242164 -0.0012594 0)
(0.020391 -0.000184515 0)
(0.0245837 -0.000601379 0)
(0.0246903 -0.00100011 0)
(0.0245777 -0.00138696 0)
(0.0208046 -0.000204724 0)
(0.0250113 -0.000664751 0)
(0.0251019 -0.00110406 0)
(0.0249747 -0.00152975 0)
(0.0212628 -0.000227611 0)
(0.0254831 -0.000736145 0)
(0.0255555 -0.00122088 0)
(0.0254114 -0.00169 0)
(0.0217711 -0.000253619 0)
(0.0260046 -0.000816819 0)
(0.0260562 -0.00135257 0)
(0.0258926 -0.00187039 0)
(0.0223365 -0.000283291 0)
(0.0265819 -0.000908268 0)
(0.0266096 -0.00150155 0)
(0.0264235 -0.00207408 0)
(0.0229668 -0.000317269 0)
(0.0272225 -0.0010123 0)
(0.0272227 -0.00167068 0)
(0.0270103 -0.00230488 0)
(0.0236711 -0.000356378 0)
(0.0279348 -0.00113114 0)
(0.0279032 -0.00186347 0)
(0.02766 -0.00256737 0)
(0.0244604 -0.000401489 0)
(0.0287289 -0.00126739 0)
(0.0286602 -0.00208415 0)
(0.0283808 -0.00286715 0)
(0.0253475 -0.000454074 0)
(0.0296165 -0.00142462 0)
(0.0295045 -0.00233794 0)
(0.0291821 -0.00321104 0)
(0.0263478 -0.000514966 0)
(0.0306118 -0.00160636 0)
(0.0304488 -0.00263136 0)
(0.030075 -0.00360745 0)
(0.0274804 -0.00058746 0)
(0.0317313 -0.00181893 0)
(0.0315083 -0.00297241 0)
(0.0310725 -0.00406695 0)
(0.028767 -0.000671287 0)
(0.0329958 -0.00206677 0)
(0.0327008 -0.00337147 0)
(0.0321897 -0.00460259 0)
(0.0302363 -0.000773705 0)
(0.0344296 -0.0023617 0)
(0.0340485 -0.00384126 0)
(0.0334448 -0.00523131 0)
(0.0319214 -0.000892872 0)
(0.0360635 -0.00270998 0)
(0.0355776 -0.00439897 0)
(0.0348592 -0.00597425 0)
(0.0338662 -0.00104083 0)
(0.0379352 -0.00313136 0)
(0.0373209 -0.00506632 0)
(0.0364585 -0.00685946 0)
(0.0361236 -0.00121714 0)
(0.0400925 -0.00363897 0)
(0.0393185 -0.00587302 0)
(0.0382731 -0.00792305 0)
(0.0387644 -0.00143891 0)
(0.042596 -0.00426491 0)
(0.0416206 -0.00685796 0)
(0.0403396 -0.00921359 0)
(0.0418772 -0.00171087 0)
(0.0455248 -0.00503816 0)
(0.0442906 -0.00807562 0)
(0.0427015 -0.0107958 0)
(0.0455843 -0.00205952 0)
(0.0489818 -0.00601571 0)
(0.0474087 -0.00960029 0)
(0.0454106 -0.0127587 0)
(0.0500399 -0.00250323 0)
(0.053105 -0.00726307 0)
(0.051079 -0.0115386 0)
(0.0485275 -0.0152249 0)
(0.0554876 -0.00308524 0)
(0.0580819 -0.0088886 0)
(0.0554326 -0.0140428 0)
(0.0521214 -0.0183678 0)
(0.0621621 -0.00386359 0)
(0.0641694 -0.0110552 0)
(0.0606565 -0.0173385 0)
(0.0562715 -0.0224326 0)
(0.0707598 -0.00490856 0)
(0.0717464 -0.0139631 0)
(0.0669459 -0.021761 0)
(0.061043 -0.0277881 0)
(0.0810368 -0.00638017 0)
(0.0812716 -0.0180828 0)
(0.074771 -0.027829 0)
(0.066556 -0.0349422 0)
(0.0966877 -0.00850904 0)
(0.0938371 -0.0237014 0)
(0.0841258 -0.0363276 0)
(0.0726102 -0.0448288 0)
(0.110667 -0.0109892 0)
(0.108997 -0.0317128 0)
(0.0972833 -0.0485031 0)
(0.0802102 -0.0584306 0)
(0.146834 -0.0166358 0)
(0.13483 -0.0449268 0)
(0.111679 -0.0666687 0)
(0.0852672 -0.0791498 0)
(0.158238 -0.017519 0)
(0.152314 -0.0532689 0)
(0.135651 -0.088725 0)
(0.104976 -0.107151 0)
(0.247455 -0.034395 0)
(0.226511 -0.0989206 0)
(0.177204 -0.149541 0)
(0.102193 -0.169336 0)
(0.00611228 -0.000732097 0)
(0.0101622 -0.00300168 0)
(0.0177565 -0.00566746 0)
(0.0274838 -0.00869397 0)
(0.0383946 -0.0113523 0)
(0.0498436 -0.0124616 0)
(0.0604503 -0.0108117 0)
(0.0695634 -0.005576 0)
(0.0773137 0.00300144 0)
(0.0842364 0.0141356 0)
(0.0891837 0.02741 0)
(0.0887722 0.0385757 0)
(0.0832444 0.0458208 0)
(0.0742229 0.0476644 0)
(0.0642191 0.0440225 0)
(0.0550582 0.0371378 0)
(0.0480509 0.0299029 0)
(0.0426468 0.0234702 0)
(0.0381827 0.0181604 0)
(0.0342952 0.0141451 0)
(0.0308352 0.011371 0)
(0.0278109 0.00953597 0)
(0.0252462 0.00826259 0)
(0.0231036 0.00727771 0)
(0.0213104 0.00644934 0)
(0.0197941 0.00572909 0)
(0.0184963 0.00509801 0)
(0.0173732 0.0045439 0)
(0.0163923 0.00405588 0)
(0.0155294 0.00362404 0)
(0.014766 0.00323998 0)
(0.0140883 0.0028965 0)
(0.0134853 0.00258741 0)
(0.0129483 0.0023078 0)
(0.0124709 0.00205313 0)
(0.0120481 0.0018187 0)
(0.0116754 0.00160055 0)
(0.0113492 0.00139613 0)
(0.0110664 0.00120378 0)
(0.0108248 0.00102186 0)
(0.0106226 0.000848831 0)
(0.0104581 0.00068339 0)
(0.01033 0.000524591 0)
(0.0102371 0.000371755 0)
(0.0101783 0.000224455 0)
(0.0101524 8.24899e-05 0)
(0.0101584 -5.41261e-05 0)
(0.0101952 -0.000185094 0)
(0.0102616 -0.000310159 0)
(0.0103563 -0.000429083 0)
(0.0104779 -0.000541463 0)
(0.0106248 -0.00064686 0)
(0.0107954 -0.000744834 0)
(0.0109878 -0.000834965 0)
(0.0112002 -0.000916883 0)
(0.0114304 -0.000990282 0)
(0.0116765 -0.00105494 0)
(0.0119363 -0.00111073 0)
(0.0122076 -0.00115761 0)
(0.0124883 -0.00119566 0)
(0.0127762 -0.00122506 0)
(0.0130693 -0.00124606 0)
(0.0133657 -0.00125903 0)
(0.0136633 -0.00126439 0)
(0.0139605 -0.00126265 0)
(0.0142557 -0.00125434 0)
(0.0145474 -0.00124008 0)
(0.0148343 -0.00122045 0)
(0.0151152 -0.0011961 0)
(0.0153892 -0.00116763 0)
(0.0156555 -0.00113566 0)
(0.0159133 -0.00110077 0)
(0.0161621 -0.00106354 0)
(0.0164014 -0.00102448 0)
(0.016631 -0.000984089 0)
(0.0168507 -0.000942808 0)
(0.0170604 -0.000901044 0)
(0.0172601 -0.000859159 0)
(0.0174498 -0.000817471 0)
(0.0176298 -0.000776257 0)
(0.0178001 -0.000735752 0)
(0.0179611 -0.000696156 0)
(0.018113 -0.000657634 0)
(0.0182561 -0.000620319 0)
(0.0183907 -0.000584313 0)
(0.0185173 -0.000549695 0)
(0.018636 -0.00051652 0)
(0.0187474 -0.000484822 0)
(0.0188517 -0.00045462 0)
(0.0189493 -0.000425915 0)
(0.0190406 -0.000398697 0)
(0.019126 -0.000372946 0)
(0.0192057 -0.000348631 0)
(0.0192801 -0.000325717 0)
(0.0193495 -0.000304162 0)
(0.0194143 -0.000283919 0)
(0.0194746 -0.000264939 0)
(0.0195309 -0.000247173 0)
(0.0195834 -0.000230567 0)
(0.0196323 -0.000215069 0)
(0.0196779 -0.000200627 0)
(0.0197204 -0.000187191 0)
(0.01976 -0.000174708 0)
(0.019797 -0.00016313 0)
(0.0198315 -0.000152411 0)
(0.0198637 -0.000142506 0)
(0.0198939 -0.00013337 0)
(0.0199221 -0.000124964 0)
(0.0199485 -0.000117249 0)
(0.0199733 -0.000110189 0)
(0.0199967 -0.000103751 0)
(0.0200186 -9.79029e-05 0)
(0.0200394 -9.2617e-05 0)
(0.020059 -8.78666e-05 0)
(0.0200777 -8.36279e-05 0)
(0.0200955 -7.98799e-05 0)
(0.0201125 -7.66032e-05 0)
(0.0201289 -7.37816e-05 0)
(0.0201446 -7.14009e-05 0)
(0.0201599 -6.94492e-05 0)
(0.0201748 -6.7917e-05 0)
(0.0201894 -6.67975e-05 0)
(0.0202039 -6.60855e-05 0)
(0.0202181 -6.57796e-05 0)
(0.0202324 -6.58791e-05 0)
(0.0202467 -6.63863e-05 0)
(0.0202612 -6.73055e-05 0)
(0.0202759 -6.86441e-05 0)
(0.0202909 -7.04124e-05 0)
(0.0203064 -7.26229e-05 0)
(0.0203223 -7.52912e-05 0)
(0.0203389 -7.84358e-05 0)
(0.0203562 -8.20783e-05 0)
(0.0203744 -8.62439e-05 0)
(0.0203935 -9.09609e-05 0)
(0.0204137 -9.6262e-05 0)
(0.020435 -0.000102184 0)
(0.0204577 -0.000108767 0)
(0.0204819 -0.000116056 0)
(0.0205078 -0.000124102 0)
(0.0205354 -0.000132962 0)
(0.020565 -0.000142698 0)
(0.0205968 -0.000153378 0)
(0.020631 -0.000165078 0)
(0.0206678 -0.000177882 0)
(0.0207074 -0.000191882 0)
(0.0207502 -0.000207182 0)
(0.0207964 -0.000223895 0)
(0.0208463 -0.000242144 0)
(0.0209002 -0.000262069 0)
(0.0209586 -0.000283821 0)
(0.0210218 -0.000307571 0)
(0.0210902 -0.000333506 0)
(0.0211644 -0.000361833 0)
(0.0212448 -0.000392785 0)
(0.021332 -0.000426619 0)
(0.0214267 -0.000463622 0)
(0.0215295 -0.000504115 0)
(0.0216412 -0.000548458 0)
(0.0217626 -0.000597054 0)
(0.0218945 -0.000650355 0)
(0.0220381 -0.000708871 0)
(0.0221944 -0.00077318 0)
(0.0223646 -0.000843935 0)
(0.0225501 -0.000921877 0)
(0.0227524 -0.00100785 0)
(0.022973 -0.00110283 0)
(0.023214 -0.00120791 0)
(0.0234773 -0.00132437 0)
(0.0237653 -0.00145369 0)
(0.0240805 -0.00159758 0)
(0.0244258 -0.00175801 0)
(0.0248045 -0.00193733 0)
(0.0252202 -0.00213825 0)
(0.0256772 -0.00236402 0)
(0.02618 -0.00261847 0)
(0.026734 -0.00290619 0)
(0.0273453 -0.00323268 0)
(0.0280209 -0.0036046 0)
(0.0287685 -0.00403004 0)
(0.0295974 -0.00451893 0)
(0.0305179 -0.00508355 0)
(0.0315418 -0.00573913 0)
(0.0326829 -0.00650483 0)
(0.0339568 -0.00740494 0)
(0.035381 -0.0084704 0)
(0.0369754 -0.00974131 0)
(0.0387615 -0.0112698 0)
(0.0407626 -0.0131245 0)
(0.043001 -0.015397 0)
(0.0454962 -0.0182098 0)
(0.0482576 -0.0217299 0)
(0.0512734 -0.0261854 0)
(0.0544902 -0.0318951 0)
(0.0577642 -0.0392935 0)
(0.0608089 -0.0490436 0)
(0.0629575 -0.0619213 0)
(0.0626174 -0.0798789 0)
(0.0600712 -0.103812 0)
(0.017911 -0.145033 0)
(0.00374955 -0.0100759 0)
(0.00877992 -0.013752 0)
(0.0162472 -0.0172674 0)
(0.0247015 -0.0212257 0)
(0.0338641 -0.0244231 0)
(0.0434037 -0.0253229 0)
(0.0528164 -0.0224991 0)
(0.0611126 -0.0154872 0)
(0.0668442 -0.00555429 0)
(0.0695402 0.00698612 0)
(0.0715923 0.0232387 0)
(0.0722113 0.040193 0)
(0.0692351 0.0510734 0)
(0.0637764 0.0551524 0)
(0.0565179 0.0525002 0)
(0.0493113 0.0447225 0)
(0.0435631 0.0357648 0)
(0.0392216 0.0281345 0)
(0.035476 0.0221189 0)
(0.0320655 0.0176646 0)
(0.0289581 0.0145004 0)
(0.0262231 0.0122413 0)
(0.0239068 0.0105396 0)
(0.021976 0.00917529 0)
(0.0203586 0.00804005 0)
(0.0189851 0.00708046 0)
(0.0178024 0.00626195 0)
(0.0167725 0.0055577 0)
(0.0158679 0.00494639 0)
(0.0150678 0.00441124 0)
(0.0143566 0.003939 0)
(0.0137224 0.00351904 0)
(0.0131557 0.0031426 0)
(0.0126492 0.0028026 0)
(0.0121974 0.00249292 0)
(0.011796 0.00220788 0)
(0.0114412 0.00194297 0)
(0.0111298 0.00169492 0)
(0.0108595 0.00146125 0)
(0.0106285 0.00123986 0)
(0.0104352 0.0010289 0)
(0.0102785 0.000826878 0)
(0.0101573 0.000632629 0)
(0.0100707 0.000445363 0)
(0.0100179 0.000264616 0)
(0.00999792 9.01898e-05 0)
(0.0100099 -7.78609e-05 0)
(0.0100529 -0.00023922 0)
(0.0101259 -0.000393483 0)
(0.0102276 -0.000540279 0)
(0.0103567 -0.000679067 0)
(0.0105117 -0.000809258 0)
(0.0106908 -0.00093027 0)
(0.0108922 -0.00104155 0)
(0.0111139 -0.00114261 0)
(0.0113538 -0.00123306 0)
(0.0116098 -0.00131259 0)
(0.0118795 -0.00138104 0)
(0.0121608 -0.00143837 0)
(0.0124512 -0.00148467 0)
(0.0127487 -0.00152015 0)
(0.013051 -0.00154518 0)
(0.013356 -0.0015602 0)
(0.0136619 -0.00156576 0)
(0.0139667 -0.0015625 0)
(0.0142689 -0.00155113 0)
(0.0145669 -0.00153239 0)
(0.0148594 -0.00150706 0)
(0.0151453 -0.00147593 0)
(0.0154235 -0.00143978 0)
(0.0156933 -0.00139937 0)
(0.015954 -0.00135544 0)
(0.016205 -0.00130869 0)
(0.0164461 -0.00125979 0)
(0.0166769 -0.00120932 0)
(0.0168974 -0.00115786 0)
(0.0171074 -0.00110589 0)
(0.017307 -0.00105385 0)
(0.0174963 -0.00100214 0)
(0.0176756 -0.000951088 0)
(0.017845 -0.000900983 0)
(0.0180048 -0.000852063 0)
(0.0181554 -0.000804524 0)
(0.0182971 -0.000758524 0)
(0.0184302 -0.000714183 0)
(0.0185551 -0.000671592 0)
(0.0186722 -0.000630812 0)
(0.0187819 -0.00059188 0)
(0.0188845 -0.000554813 0)
(0.0189805 -0.00051961 0)
(0.0190701 -0.000486252 0)
(0.0191538 -0.000454712 0)
(0.019232 -0.000424949 0)
(0.0193048 -0.000396916 0)
(0.0193727 -0.000370557 0)
(0.019436 -0.000345816 0)
(0.019495 -0.00032263 0)
(0.01955 -0.000300934 0)
(0.0196012 -0.000280663 0)
(0.0196489 -0.000261751 0)
(0.0196933 -0.000244134 0)
(0.0197347 -0.000227748 0)
(0.0197733 -0.000212529 0)
(0.0198093 -0.000198417 0)
(0.0198429 -0.000185355 0)
(0.0198742 -0.000173287 0)
(0.0199035 -0.000162159 0)
(0.0199309 -0.000151921 0)
(0.0199566 -0.000142526 0)
(0.0199807 -0.000133931 0)
(0.0200034 -0.000126093 0)
(0.0200247 -0.000118974 0)
(0.0200449 -0.00011254 0)
(0.0200639 -0.000106757 0)
(0.020082 -0.000101598 0)
(0.0200993 -9.70357e-05 0)
(0.0201158 -9.30468e-05 0)
(0.0201316 -8.96114e-05 0)
(0.0201469 -8.67119e-05 0)
(0.0201617 -8.43336e-05 0)
(0.0201762 -8.24652e-05 0)
(0.0201904 -8.1098e-05 0)