/*--------------------------------*- C++ -*----------------------------------*\
  =========                 |
  \\      /  F ield         | OpenFOAM: The Open Source CFD Toolbox
   \\    /   O peration     | Website:  https://openfoam.org
    \\  /    A nd           | Version:  dev
     \\/     M anipulation  |
\*---------------------------------------------------------------------------*/
FoamFile
{
    version     2.0;
    format      ascii;
    class       surfaceScalarField;
    location    "6";
    object      phi;
}
// * * * * * * * * * * * * * * * * * * * * * * * * * * * * * * * * * * * * * //

dimensions      [1 0 -1 0 0 0 0];

internalField   nonuniform List<scalar> 
15760
(
9.28021e-06
0.00114934
1.01578e-05
0.00115774
-3.83163e-06
0.0011726
0.00120347
-4.87019e-05
2.75362e-05
0.0011218
4.68612e-05
0.00113841
6.92431e-05
0.00115021
0.00120277
6.99387e-05
5.31349e-05
0.00106867
0.000103247
0.0010883
0.000170605
0.00108286
0.0011299
0.000243483
7.59338e-05
0.000992734
0.000152433
0.0010118
0.000247629
0.000987661
0.00101255
0.000364978
8.82453e-05
0.000904489
0.000179866
0.000920178
0.000286536
0.000880992
0.000874557
0.000424525
9.29521e-05
0.000811538
0.000190634
0.000822496
0.000295738
0.00077589
0.000740864
0.000429431
9.70688e-05
0.00071447
0.000192818
0.000726748
0.000287658
0.00068105
0.000626912
0.000401611
9.81865e-05
0.000616283
0.000186404
0.000638531
0.000269004
0.00059845
0.000537401
0.000358516
8.80744e-05
0.000528209
0.000166758
0.000559848
0.000238069
0.000527138
0.000470295
0.000305175
6.95845e-05
0.000458624
0.000137096
0.000492336
0.000197183
0.000467052
0.000420644
0.000246833
5.19983e-05
0.000406625
0.000107355
0.000436979
0.000156209
0.000418198
0.000382781
0.000194072
3.94757e-05
0.00036715
8.34374e-05
0.000393017
0.000122269
0.000379366
0.000352677
0.000152373
3.10895e-05
0.00033606
6.55809e-05
0.000358526
9.63626e-05
0.000348584
0.000328229
0.000120811
2.50367e-05
0.000311023
5.21652e-05
0.000331398
7.67341e-05
0.000324015
0.000308246
9.67169e-05
2.03115e-05
0.000290712
4.18551e-05
0.000309854
6.16305e-05
0.00030424
0.00029186
7.80163e-05
1.65191e-05
0.000274193
3.37987e-05
0.000292574
4.9828e-05
0.00028821
0.000278385
6.33028e-05
1.34594e-05
0.000260733
2.74274e-05
0.000278606
4.04863e-05
0.000275152
0.000267282
5.15892e-05
1.09835e-05
0.00024975
2.2336e-05
0.000267254
3.3009e-05
0.000264479
0.000258127
4.21647e-05
8.97154e-06
0.000240778
1.82294e-05
0.000257996
2.69653e-05
0.000255743
0.000250581
3.45115e-05
7.32829e-06
0.00023345
1.48897e-05
0.000250434
2.20396e-05
0.000248593
0.000244373
2.82475e-05
5.97947e-06
0.000227471
1.21545e-05
0.000244259
1.79968e-05
0.000242751
0.000239283
2.30868e-05
4.86718e-06
0.000222603
9.90071e-06
0.000239226
1.46592e-05
0.000237992
0.00023513
1.88123e-05
3.94592e-06
0.000218657
8.0339e-06
0.000235138
1.18908e-05
0.000234135
0.000231764
1.52566e-05
3.18028e-06
0.000215477
6.48148e-06
0.000231837
9.58626e-06
0.00023103
0.00022906
1.22899e-05
2.54237e-06
0.000212935
5.18676e-06
0.000229192
7.66305e-06
0.000228554
0.000226914
9.80929e-06
2.01005e-06
0.000210925
4.10521e-06
0.000227097
6.0559e-06
0.000226603
0.000225237
7.73329e-06
1.56548e-06
0.000209359
3.20089e-06
0.000225462
4.71208e-06
0.000225092
0.000223953
5.99549e-06
1.19425e-06
0.000208165
2.44493e-06
0.000224211
3.58911e-06
0.000223948
0.000223
4.54237e-06
8.84631e-07
0.00020728
1.81398e-06
0.000223282
2.65207e-06
0.00022311
0.000222323
3.32942e-06
6.26904e-07
0.000206653
1.28854e-06
0.00022262
1.87214e-06
0.000222526
0.000221875
2.32009e-06
4.13248e-07
0.00020624
8.52845e-07
0.00022218
1.2256e-06
0.000222154
0.000221617
1.48363e-06
2.36609e-07
0.000206004
4.92803e-07
0.000221924
6.92076e-07
0.000221954
0.000221515
7.94184e-07
9.15949e-08
0.000205912
1.97657e-07
0.000221818
2.55159e-07
0.000221897
0.00022154
2.29974e-07
-2.58744e-08
0.000205938
-4.18115e-08
0.000221834
-9.96593e-08
0.000221955
0.000221668
-2.27799e-07
-1.19548e-07
0.000206057
-2.34104e-07
0.000221949
-3.85081e-07
0.000222106
0.000221879
-5.95732e-07
-1.95681e-07
0.000206253
-3.89014e-07
0.000222142
-6.13218e-07
0.00022233
0.000222153
-8.87931e-07
-2.55185e-07
0.000206508
-5.10359e-07
0.000222397
-7.91804e-07
0.000222611
0.000222477
-1.11572e-06
-3.00667e-07
0.000206809
-6.03306e-07
0.0002227
-9.28234e-07
0.000222936
0.000222838
-1.28889e-06
-3.34432e-07
0.000207143
-6.7251e-07
0.000223038
-1.02931e-06
0.000223293
0.000223225
-1.41604e-06
-3.584e-07
0.000207502
-7.21768e-07
0.000223401
-1.10077e-06
0.000223672
0.000223628
-1.50465e-06
-3.74211e-07
0.000207876
-7.54402e-07
0.000223782
-1.14761e-06
0.000224065
0.000224042
-1.56136e-06
-3.83321e-07
0.000208259
-7.73291e-07
0.000224172
-1.17409e-06
0.000224466
0.00022446
-1.59174e-06
-3.86908e-07
0.000208646
-7.80841e-07
0.000224565
-1.18381e-06
0.000224869
0.000224876
-1.60046e-06
-3.85935e-07
0.000209032
-7.79275e-07
0.000224959
-1.17991e-06
0.00022527
0.000225288
-1.59161e-06
-3.81275e-07
0.000209413
-7.70373e-07
0.000225348
-1.16504e-06
0.000225664
0.000225692
-1.56866e-06
-3.73768e-07
0.000209787
-7.55452e-07
0.00022573
-1.14149e-06
0.00022605
0.000226085
-1.5345e-06
-3.64067e-07
0.000210151
-7.35846e-07
0.000226101
-1.11118e-06
0.000226426
0.000226465
-1.49167e-06
-3.52626e-07
0.000210504
-7.12761e-07
0.000226461
-1.0757e-06
0.000226789
0.000226832
-1.44236e-06
-3.39856e-07
0.000210844
-6.8713e-07
0.000226809
-1.03638e-06
0.000227138
0.000227184
-1.38831e-06
-3.26175e-07
0.00021117
-6.59652e-07
0.000227142
-9.94403e-07
0.000227473
0.00022752
-1.33095e-06
-3.11934e-07
0.000211482
-6.30947e-07
0.000227461
-9.50722e-07
0.000227792
0.000227841
-1.27149e-06
-2.97379e-07
0.000211779
-6.01563e-07
0.000227765
-9.06101e-07
0.000228097
0.000228146
-1.21098e-06
-2.8271e-07
0.000212062
-5.71919e-07
0.000228055
-8.61176e-07
0.000228386
0.000228435
-1.15023e-06
-2.68091e-07
0.00021233
-5.42367e-07
0.000228329
-8.16464e-07
0.00022866
0.000228709
-1.08991e-06
-2.5366e-07
0.000212583
-5.1322e-07
0.000228588
-7.72378e-07
0.000228919
0.000228967
-1.03056e-06
-2.39522e-07
0.000212823
-4.84694e-07
0.000228834
-7.29237e-07
0.000229164
0.00022921
-9.72583e-07
-2.25778e-07
0.000213049
-4.56934e-07
0.000229065
-6.87309e-07
0.000229394
0.000229439
-9.16303e-07
-2.12479e-07
0.000213261
-4.30074e-07
0.000229282
-6.46774e-07
0.000229611
0.000229654
-8.61968e-07
-1.99691e-07
0.000213461
-4.0421e-07
0.000229487
-6.07795e-07
0.000229815
0.000229856
-8.09748e-07
-1.87435e-07
0.000213648
-3.79426e-07
0.000229679
-5.70454e-07
0.000230006
0.000230046
-7.59757e-07
-1.7573e-07
0.000213824
-3.55763e-07
0.000229859
-5.34794e-07
0.000230185
0.000230223
-7.12085e-07
-1.64585e-07
0.000213989
-3.33234e-07
0.000230028
-5.00861e-07
0.000230352
0.000230389
-6.66758e-07
-1.54002e-07
0.000214143
-3.11854e-07
0.000230185
-4.68669e-07
0.000230509
0.000230544
-6.23773e-07
-1.43983e-07
0.000214287
-2.91607e-07
0.000230333
-4.38209e-07
0.000230656
0.000230689
-5.83099e-07
-1.34521e-07
0.000214421
-2.7249e-07
0.000230471
-4.0944e-07
0.000230793
0.000230824
-5.44702e-07
-1.25605e-07
0.000214547
-2.54462e-07
0.0002306
-3.8233e-07
0.000230921
0.00023095
-5.08545e-07
-1.17222e-07
0.000214664
-2.37496e-07
0.00023072
-3.56831e-07
0.00023104
0.000231068
-4.74557e-07
-1.09343e-07
0.000214773
-2.21559e-07
0.000230832
-3.32896e-07
0.000231151
0.000231178
-4.42658e-07
-1.01949e-07
0.000214875
-2.06632e-07
0.000230937
-3.10451e-07
0.000231255
0.00023128
-4.12752e-07
-9.503e-08
0.00021497
-1.92655e-07
0.000231035
-2.89427e-07
0.000231352
0.000231375
-3.84783e-07
-8.85645e-08
0.000215059
-1.79585e-07
0.000231126
-2.69785e-07
0.000231442
0.000231464
-3.5865e-07
-8.25279e-08
0.000215141
-1.67386e-07
0.000231211
-2.5146e-07
0.000231526
0.000231547
-3.34266e-07
-7.69004e-08
0.000215218
-1.56014e-07
0.00023129
-2.3438e-07
0.000231605
0.000231624
-3.11527e-07
-7.16648e-08
0.00021529
-1.45426e-07
0.000231363
-2.1847e-07
0.000231678
0.000231696
-2.90357e-07
-6.68007e-08
0.000215357
-1.35576e-07
0.000231432
-2.03671e-07
0.000231746
0.000231763
-2.70694e-07
-6.22809e-08
0.000215419
-1.26422e-07
0.000231496
-1.89944e-07
0.000231809
0.000231826
-2.52439e-07
-5.80784e-08
0.000215477
-1.1794e-07
0.000231556
-1.77223e-07
0.000231868
0.000231884
-2.35512e-07
-5.41857e-08
0.000215531
-1.10089e-07
0.000231612
-1.65438e-07
0.000231924
0.000231938
-2.19835e-07
-5.05884e-08
0.000215582
-1.02836e-07
0.000231664
-1.54529e-07
0.000231976
0.000231989
-2.05339e-07
-4.72755e-08
0.000215629
-9.61251e-08
0.000231713
-1.44461e-07
0.000232024
0.000232037
-1.91972e-07
-4.42225e-08
0.000215673
-8.99451e-08
0.000231759
-1.35199e-07
0.000232069
0.000232081
-1.79667e-07
-4.14077e-08
0.000215714
-8.42692e-08
0.000231802
-1.26683e-07
0.000232112
0.000232123
-1.68351e-07
-3.88232e-08
0.000215753
-7.90668e-08
0.000231842
-1.18871e-07
0.000232151
0.000232162
-1.57966e-07
-3.64635e-08
0.00021579
-7.42991e-08
0.00023188
-1.1172e-07
0.000232189
0.000232199
-1.48472e-07
-3.43207e-08
0.000215824
-6.99543e-08
0.000231916
-1.05201e-07
0.000232224
0.000232233
-1.39822e-07
-3.23703e-08
0.000215856
-6.60034e-08
0.000231949
-9.92903e-08
0.000232257
0.000232266
-1.31969e-07
-3.06003e-08
0.000215887
-6.24412e-08
0.000231981
-9.39478e-08
0.000232289
0.000232297
-1.24873e-07
-2.90072e-08
0.000215916
-5.9236e-08
0.000232011
-8.91394e-08
0.000232319
0.000232326
-1.18489e-07
-2.75845e-08
0.000215944
-5.63748e-08
0.00023204
-8.48431e-08
0.000232347
0.000232354
-1.12788e-07
-2.63233e-08
0.00021597
-5.38398e-08
0.000232068
-8.10363e-08
0.000232374
0.000232381
-1.07749e-07
-2.52165e-08
0.000215995
-5.16172e-08
0.000232094
-7.77173e-08
0.0002324
0.000232406
-1.03331e-07
-2.42581e-08
0.000216019
-4.97014e-08
0.000232119
-7.48455e-08
0.000232426
0.000232431
-9.95256e-08
-2.3446e-08
0.000216043
-4.8073e-08
0.000232144
-7.24179e-08
0.00023245
0.000232455
-9.62981e-08
-2.27771e-08
0.000216066
-4.67313e-08
0.000232168
-7.04068e-08
0.000232474
0.000232478
-9.36451e-08
-2.2246e-08
0.000216088
-4.56664e-08
0.000232191
-6.88223e-08
0.000232497
0.000232501
-9.15484e-08
-2.18486e-08
0.00021611
-4.48768e-08
0.000232214
-6.76538e-08
0.00023252
0.000232523
-8.99943e-08
-2.15795e-08
0.000216131
-4.43582e-08
0.000232237
-6.68873e-08
0.000232542
0.000232545
-8.89815e-08
-2.14391e-08
0.000216153
-4.41063e-08
0.00023226
-6.65136e-08
0.000232564
0.000232567
-8.8502e-08
-2.14254e-08
0.000216174
-4.41219e-08
0.000232283
-6.65482e-08
0.000232587
0.000232589
-8.85485e-08
-2.15503e-08
0.000216196
-4.44027e-08
0.000232305
-6.69791e-08
0.000232609
0.000232611
-8.91383e-08
-2.18163e-08
0.000216217
-4.4952e-08
0.000232329
-6.7823e-08
0.000232632
0.000232634
-9.02612e-08
-2.22088e-08
0.00021624
-4.57811e-08
0.000232352
-6.90813e-08
0.000232656
0.000232657
-9.19348e-08
-2.2737e-08
0.000216262
-4.6888e-08
0.000232376
-7.07557e-08
0.00023268
0.00023268
-9.41702e-08
-2.34024e-08
0.000216286
-4.82804e-08
0.000232401
-7.28606e-08
0.000232704
0.000232704
-9.69789e-08
-2.42162e-08
0.00021631
-4.99773e-08
0.000232427
-7.54156e-08
0.00023273
0.000232729
-1.00376e-07
-2.51886e-08
0.000216335
-5.19768e-08
0.000232454
-7.84281e-08
0.000232756
0.000232755
-1.04396e-07
-2.632e-08
0.000216361
-5.42943e-08
0.000232482
-8.19323e-08
0.000232784
0.000232782
-1.09051e-07
-2.76123e-08
0.000216389
-5.69484e-08
0.000232511
-8.59351e-08
0.000232813
0.000232811
-1.14383e-07
-2.90683e-08
0.000216418
-5.99521e-08
0.000232542
-9.04699e-08
0.000232843
0.000232841
-1.20412e-07
-3.06994e-08
0.000216449
-6.33323e-08
0.000232574
-9.55648e-08
0.000232875
0.000232872
-1.27186e-07
-3.25351e-08
0.000216481
-6.71039e-08
0.000232609
-1.01248e-07
0.00023291
0.000232906
-1.34754e-07
-3.45768e-08
0.000216516
-7.12982e-08
0.000232646
-1.07565e-07
0.000232946
0.000232941
-1.43155e-07
-3.68406e-08
0.000216553
-7.59302e-08
0.000232685
-1.1455e-07
0.000232984
0.000232979
-1.52448e-07
-3.93265e-08
0.000216592
-8.10396e-08
0.000232727
-1.22245e-07
0.000233026
0.00023302
-1.6268e-07
-4.20526e-08
0.000216634
-8.66494e-08
0.000232771
-1.30694e-07
0.00023307
0.000233063
-1.73918e-07
-4.50348e-08
0.000216679
-9.28004e-08
0.000232819
-1.39959e-07
0.000233117
0.000233109
-1.86243e-07
-4.83085e-08
0.000216727
-9.95301e-08
0.00023287
-1.50098e-07
0.000233167
0.000233159
-1.99725e-07
-5.18977e-08
0.000216779
-1.06882e-07
0.000232925
-1.61178e-07
0.000233222
0.000233212
-2.14456e-07
-5.58166e-08
0.000216835
-1.14907e-07
0.000232984
-1.73265e-07
0.00023328
0.000233269
-2.30527e-07
-6.009e-08
0.000216895
-1.23655e-07
0.000233048
-1.86437e-07
0.000233343
0.000233331
-2.48046e-07
-6.47275e-08
0.00021696
-1.33174e-07
0.000233116
-2.00776e-07
0.00023341
0.000233397
-2.67098e-07
-6.97645e-08
0.00021703
-1.43523e-07
0.00023319
-2.1636e-07
0.000233483
0.000233469
-2.87823e-07
-7.52397e-08
0.000217105
-1.54779e-07
0.00023327
-2.33302e-07
0.000233562
0.000233546
-3.10361e-07
-8.11997e-08
0.000217186
-1.67011e-07
0.000233355
-2.51719e-07
0.000233646
0.000233629
-3.34849e-07
-8.7686e-08
0.000217274
-1.80288e-07
0.000233448
-2.71722e-07
0.000233738
0.000233719
-3.61443e-07
-9.47173e-08
0.000217368
-1.94709e-07
0.000233548
-2.93435e-07
0.000233837
0.000233816
-3.90309e-07
-1.02341e-07
0.000217471
-2.10359e-07
0.000233656
-3.16997e-07
0.000233943
0.00023392
-4.21633e-07
-1.10617e-07
0.000217581
-2.2733e-07
0.000233773
-3.42565e-07
0.000234059
0.000234033
-4.55613e-07
-1.19592e-07
0.000217701
-2.45752e-07
0.000233899
-3.70286e-07
0.000234183
0.000234155
-4.92475e-07
-1.29327e-07
0.00021783
-2.65729e-07
0.000234035
-4.00363e-07
0.000234318
0.000234288
-5.32453e-07
-1.399e-07
0.00021797
-2.87398e-07
0.000234183
-4.3298e-07
0.000234463
0.00023443
-5.75808e-07
-1.51369e-07
0.000218122
-3.10893e-07
0.000234342
-4.6835e-07
0.000234621
0.000234585
-6.22832e-07
-1.63806e-07
0.000218285
-3.36373e-07
0.000234515
-5.06716e-07
0.000234791
0.000234752
-6.73816e-07
-1.77284e-07
0.000218463
-3.64005e-07
0.000234701
-5.48307e-07
0.000234975
0.000234933
-7.29096e-07
-1.91895e-07
0.000218654
-3.93967e-07
0.000234904
-5.9341e-07
0.000235175
0.000235128
-7.89034e-07
-2.07742e-07
0.000218862
-4.2646e-07
0.000235122
-6.4232e-07
0.000235391
0.00023534
-8.54045e-07
-2.24933e-07
0.000219087
-4.61711e-07
0.000235359
-6.95376e-07
0.000235624
0.000235569
-9.24551e-07
-2.43589e-07
0.000219331
-4.99952e-07
0.000235615
-7.52928e-07
0.000235877
0.000235817
-1.00103e-06
-2.63838e-07
0.000219595
-5.41436e-07
0.000235893
-8.15363e-07
0.000236151
0.000236086
-1.08398e-06
-2.85807e-07
0.00021988
-5.8645e-07
0.000236194
-8.83091e-07
0.000236448
0.000236377
-1.17397e-06
-3.09641e-07
0.00022019
-6.35294e-07
0.000236519
-9.56589e-07
0.000236769
0.000236692
-1.27161e-06
-3.35516e-07
0.000220525
-6.88306e-07
0.000236872
-1.03636e-06
0.000237117
0.000237033
-1.37758e-06
-3.63614e-07
0.000220889
-7.45868e-07
0.000237254
-1.12296e-06
0.000237494
0.000237403
-1.49261e-06
-3.94131e-07
0.000221283
-8.08382e-07
0.000237669
-1.217e-06
0.000237903
0.000237803
-1.61752e-06
-4.27287e-07
0.00022171
-8.76282e-07
0.000238118
-1.31913e-06
0.000238346
0.000238237
-1.75315e-06
-4.63314e-07
0.000222174
-9.50056e-07
0.000238604
-1.4301e-06
0.000238826
0.000238708
-1.9005e-06
-5.02472e-07
0.000222676
-1.03024e-06
0.000239132
-1.55069e-06
0.000239346
0.000239218
-2.06062e-06
-5.45059e-07
0.000223221
-1.11743e-06
0.000239704
-1.6818e-06
0.000239911
0.000239771
-2.23468e-06
-5.91383e-07
0.000223813
-1.21227e-06
0.000240325
-1.8244e-06
0.000240523
0.00024037
-2.42395e-06
-6.41802e-07
0.000224454
-1.31547e-06
0.000240999
-1.97954e-06
0.000241187
0.00024102
-2.62985e-06
-6.96696e-07
0.000225151
-1.42782e-06
0.00024173
-2.1484e-06
0.000241907
0.000241726
-2.85393e-06
-7.56505e-07
0.000225908
-1.55018e-06
0.000242524
-2.3323e-06
0.00024269
0.000242491
-3.09791e-06
-8.21701e-07
0.000226729
-1.68355e-06
0.000243386
-2.53269e-06
0.000243539
0.000243323
-3.36372e-06
-8.92827e-07
0.000227622
-1.82897e-06
0.000244322
-2.75117e-06
0.000244461
0.000244225
-3.65346e-06
-9.70456e-07
0.000228593
-1.98766e-06
0.000245339
-2.98951e-06
0.000245463
0.000245205
-3.96946e-06
-1.05523e-06
0.000229648
-2.16092e-06
0.000246445
-3.24969e-06
0.000246552
0.000246269
-4.31433e-06
-1.14788e-06
0.000230796
-2.35023e-06
0.000247647
-3.53391e-06
0.000247735
0.000247426
-4.69097e-06
-1.24924e-06
0.000232045
-2.55727e-06
0.000248955
-3.84463e-06
0.000249023
0.000248684
-5.10262e-06
-1.3602e-06
0.000233405
-2.78387e-06
0.000250379
-4.18464e-06
0.000250423
0.000250053
-5.55292e-06
-1.48183e-06
0.000234887
-3.03214e-06
0.000251929
-4.55704e-06
0.000251948
0.000251542
-6.04594e-06
-1.61527e-06
0.000236502
-3.30442e-06
0.000253618
-4.96532e-06
0.000253609
0.000253163
-6.58625e-06
-1.76187e-06
0.000238264
-3.60338e-06
0.00025546
-5.41343e-06
0.000255419
0.000254928
-7.179e-06
-1.9231e-06
0.000240187
-3.93203e-06
0.000257469
-5.90581e-06
0.000257393
0.000256852
-7.83004e-06
-2.10066e-06
0.000242288
-4.29376e-06
0.000259662
-6.44753e-06
0.000259547
0.000258951
-8.54595e-06
-2.29649e-06
0.000244584
-4.69248e-06
0.000262058
-7.04436e-06
0.000261899
0.000261241
-9.33425e-06
-2.51282e-06
0.000247097
-5.13265e-06
0.000264678
-7.70288e-06
0.000264469
0.000263741
-1.02035e-05
-2.7522e-06
0.000249849
-5.61939e-06
0.000267545
-8.43063e-06
0.00026728
0.000266474
-1.11635e-05
-3.01758e-06
0.000252867
-6.1586e-06
0.000270686
-9.23631e-06
0.000270358
0.000269463
-1.22255e-05
-3.31239e-06
0.000256179
-6.75711e-06
0.00027413
-1.013e-05
0.000273731
0.000272736
-1.34026e-05
-3.64063e-06
0.00025982
-7.42287e-06
0.000277913
-1.11232e-05
0.000277431
0.000276322
-1.47097e-05
-4.00696e-06
0.000263827
-8.16513e-06
0.000282071
-1.22297e-05
0.000281496
0.000280257
-1.61643e-05
-4.41685e-06
0.000268244
-8.99478e-06
0.000286649
-1.34652e-05
0.000285966
0.000284578
-1.77868e-05
-4.87679e-06
0.00027312
-9.92461e-06
0.000291697
-1.48485e-05
0.00029089
0.000289331
-1.96011e-05
-5.39449e-06
0.000278515
-1.09699e-05
0.000297272
-1.64017e-05
0.000296322
0.000294565
-2.16355e-05
-5.97919e-06
0.000284494
-1.21487e-05
0.000303441
-1.8151e-05
0.000302324
0.000300337
-2.39235e-05
-6.64197e-06
0.000291136
-1.34827e-05
0.000310282
-2.01279e-05
0.000308969
0.000306714
-2.65048e-05
-7.39625e-06
0.000298532
-1.49984e-05
0.000317884
-2.23702e-05
0.000316341
0.000313771
-2.94272e-05
-8.25847e-06
0.000306791
-1.67276e-05
0.000326353
-2.4924e-05
0.000324537
0.000321596
-3.27484e-05
-9.24882e-06
0.00031604
-1.87095e-05
0.000335814
-2.7845e-05
0.000333673
0.000330289
-3.65384e-05
-1.03923e-05
0.000326432
-2.09925e-05
0.000346414
-3.12023e-05
0.000343883
0.00033997
-4.08828e-05
-1.17203e-05
0.000338152
-2.3637e-05
0.000358331
-3.50812e-05
0.000355327
0.000350775
-4.58869e-05
-1.32723e-05
0.000351425
-2.67188e-05
0.000371777
-3.95885e-05
0.000368197
0.000362868
-5.16816e-05
-1.50989e-05
0.000366523
-3.03342e-05
0.000387013
-4.48589e-05
0.000382721
0.00037644
-5.84307e-05
-1.7265e-05
0.000383788
-3.46067e-05
0.000404354
-5.10644e-05
0.000399179
0.000391717
-6.63411e-05
-1.98558e-05
0.000403644
-3.96969e-05
0.000424196
-5.84261e-05
0.000417908
0.000408967
-7.56765e-05
-2.29836e-05
0.000426628
-4.58158e-05
0.000447028
-6.72325e-05
0.000439325
0.000428511
-8.67766e-05
-2.67991e-05
0.000453427
-5.32446e-05
0.000473473
-7.78643e-05
0.000463945
0.00045073
-0.000100083
-3.15076e-05
0.000484934
-6.23631e-05
0.000504329
-9.083e-05
0.000492412
0.000476076
-0.000116177
-3.73928e-05
0.000522327
-7.36937e-05
0.00054063
-0.000106819
0.000525537
0.000505088
-0.000135831
-4.48526e-05
0.00056718
-8.79636e-05
0.00058374
-0.000126781
0.000564354
0.000538395
-0.000160087
-5.44671e-05
0.000621647
-0.000106214
0.000635488
-0.000152042
0.000610182
0.000576718
-0.000190365
-6.70319e-05
0.000688679
-0.000129927
0.000698383
-0.000184495
0.000664749
0.000620855
-0.000228632
-8.39279e-05
0.000772607
-0.000161379
0.000775833
-0.000226862
0.000730232
0.000671615
-0.000277623
-0.000106552
0.000879159
-0.00020368
0.000872961
-0.000283273
0.000809826
0.000729673
-0.000341331
-0.000138935
0.00101809
-0.000262428
0.000996454
-0.000359651
0.000907048
0.000795215
-0.000425192
-0.000182311
0.00120041
-0.000343819
0.00115796
-0.000466578
0.00102981
0.000867387
-0.000538751
-0.000243245
0.00144365
-0.000459739
0.00137445
-0.000616402
0.00118647
0.000943001
-0.000692016
-0.000345799
0.00178945
-0.000633908
0.00166256
-0.000845679
0.00139824
0.0010203
-0.000922976
-0.000399251
0.0021887
-0.000801862
0.00206517
-0.00113961
0.00173599
0.00111628
-0.0012356
-0.000764925
-0.00139966
-0.00177934
-0.00194693
0.000317292
-0.000365995
0.000562051
-0.00017482
0.000693845
0.000111688
0.00071677
0.00034205
0.000670288
0.000471008
0.000589779
0.000509942
0.00050332
0.000488072
0.00043536
0.000426477
0.000391396
0.000349139
0.000362072
0.000276158
0.000339167
0.000216977
0.000319673
0.000171868
0.00030295
0.000137534
0.000288673
0.000110994
0.000276526
9.01635e-05
0.00026623
7.35987e-05
0.000257543
6.02771e-05
0.000250247
4.94606e-05
0.000244152
4.06063e-05
0.000239091
3.33085e-05
0.000234918
2.72599e-05
0.000231506
2.22243e-05
0.000228745
1.80176e-05
0.000226539
1.44956e-05
0.000224806
1.15424e-05
0.000223473
9.06575e-06
0.00022248
6.98937e-06
0.00022177
5.25154e-06
0.000221299
3.80031e-06
0.000221027
2.59291e-06
0.000220917
1.59298e-06
0.000220942
7.69779e-07
0.000221075
9.70686e-08
0.000221294
-4.47463e-07
0.000221582
-8.83762e-07
0.000221923
-1.22825e-06
0.000222302
-1.49493e-06
0.000222709
-1.69589e-06
0.000223134
-1.84149e-06
0.000223571
-1.94087e-06
0.000224011
-2.00196e-06
0.000224451
-2.03135e-06
0.000224885
-2.03482e-06
0.000225311
-2.01745e-06
0.000225726
-1.98341e-06
0.000226127
-1.93623e-06
0.000226515
-1.8789e-06
0.000226886
-1.81398e-06
0.000227242
-1.74361e-06
0.00022758
-1.66957e-06
0.000227902
-1.59335e-06
0.000228207
-1.51614e-06
0.000228496
-1.4389e-06
0.000228768
-1.36244e-06
0.000229025
-1.28738e-06
0.000229267
-1.21424e-06
0.000229494
-1.14335e-06
0.000229707
-1.07502e-06
0.000229907
-1.00942e-06
0.000230094
-9.46723e-07
0.000230268
-8.86987e-07
0.000230432
-8.30237e-07
0.000230585
-7.76468e-07
0.000230727
-7.2565e-07
0.00023086
-6.77722e-07
0.000230984
-6.32602e-07
0.0002311
-5.90198e-07
0.000231208
-5.50399e-07
0.000231308
-5.13125e-07
0.000231402
-4.7827e-07
0.000231489
-4.45716e-07
0.00023157
-4.15341e-07
0.000231645
-3.87042e-07
0.000231716
-3.60716e-07
0.000231781
-3.36251e-07
0.000231842
-3.13551e-07
0.000231899
-2.92497e-07
0.000231952
-2.73009e-07
0.000232002
-2.55009e-07
0.000232048
-2.38393e-07
0.000232092
-2.23093e-07
0.000232133
-2.09033e-07
0.000232171
-1.96137e-07
0.000232207
-1.84351e-07
0.00023224
-1.73607e-07
0.000232272
-1.63854e-07
0.000232302
-1.55036e-07
0.000232331
-1.47113e-07
0.000232358
-1.40045e-07
0.000232384
-1.33786e-07
0.000232409
-1.28308e-07
0.000232433
-1.23591e-07
0.000232457
-1.1959e-07
0.000232479
-1.16297e-07
0.000232502
-1.13702e-07
0.000232523
-1.11779e-07
0.000232545
-1.10526e-07
0.000232566
-1.09933e-07
0.000232588
-1.09999e-07
0.000232609
-1.10727e-07
0.000232631
-1.12129e-07
0.000232653
-1.14215e-07
0.000232676
-1.16991e-07
0.0002327
-1.2048e-07
0.000232724
-1.24704e-07
0.000232749
-1.29697e-07
0.000232776
-1.35483e-07
0.000232804
-1.421e-07
0.000232833
-1.49601e-07
0.000232864
-1.58021e-07
0.000232896
-1.67415e-07
0.000232931
-1.77847e-07
0.000232968
-1.89378e-07
0.000233007
-2.02082e-07
0.000233049
-2.16049e-07
0.000233095
-2.31351e-07
0.000233143
-2.48098e-07
0.000233195
-2.66389e-07
0.000233251
-2.86348e-07
0.000233311
-3.08091e-07
0.000233375
-3.31755e-07
0.000233445
-3.57489e-07
0.00023352
-3.85463e-07
0.000233601
-4.1587e-07
0.000233689
-4.48885e-07
0.000233783
-4.84716e-07
0.000233885
-5.236e-07
0.000233995
-5.65782e-07
0.000234114
-6.11538e-07
0.000234243
-6.61165e-07
0.000234382
-7.14983e-07
0.000234533
-7.73343e-07
0.000234695
-8.36612e-07
0.000234871
-9.05215e-07
0.000235062
-9.79607e-07
0.000235268
-1.06028e-06
0.000235492
-1.14776e-06
0.000235733
-1.24264e-06
0.000235995
-1.34555e-06
0.000236278
-1.45719e-06
0.000236585
-1.57831e-06
0.000236917
-1.70974e-06
0.000237277
-1.85241e-06
0.000237666
-2.00729e-06
0.000238089
-2.17547e-06
0.000238546
-2.35814e-06
0.000239042
-2.55662e-06
0.00023958
-2.77234e-06
0.000240163
-3.00687e-06
0.000240795
-3.26196e-06
0.000241481
-3.53952e-06
0.000242224
-3.8417e-06
0.000243031
-4.17082e-06
0.000243907
-4.52946e-06
0.000244859
-4.92051e-06
0.000245891
-5.34716e-06
0.000247013
-5.81296e-06
0.000248233
-6.32189e-06
0.000249558
-6.87839e-06
0.000251
-7.48744e-06
0.000252568
-8.1546e-06
0.000254275
-8.88616e-06
0.000256134
-9.68919e-06
0.00025816
-1.05717e-05
0.000260369
-1.15429e-05
0.000262778
-1.2613e-05
0.000265409
-1.37939e-05
0.000268282
-1.50992e-05
0.000271424
-1.65445e-05
0.000274862
-1.81477e-05
0.000278628
-1.99298e-05
0.000282756
-2.19151e-05
0.000287287
-2.4132e-05
0.000292265
-2.66138e-05
0.000297742
-2.93999e-05
0.000303774
-3.25371e-05
0.000310428
-3.60811e-05
0.000317778
-4.00986e-05
0.00032591
-4.46703e-05
0.000334921
-4.98941e-05
0.000344924
-5.58895e-05
0.000356046
-6.28038e-05
0.000368434
-7.08192e-05
0.000382257
-8.01633e-05
0.000397702
-9.11223e-05
0.000414985
-0.000104059
0.000434341
-0.000119438
0.000456021
-0.000137857
0.000480282
-0.000160092
0.000507354
-0.00018716
0.00053739
-0.000220401
0.000570354
-0.000261595
0.000605848
-0.000313117
0.000642669
-0.000378153
0.000678404
-0.000460927
0.000706838
-0.000567185
0.000718513
-0.000703691
0.000676308
-0.000880771
0.000537968
-0.00109726
-0.00140896
4.55472e-05
-0.000411541
0.000106968
-0.000236241
0.000194503
2.41524e-05
0.000264628
0.000271925
0.000297214
0.000438423
0.000302937
0.000504222
0.000298763
0.000492248
0.000297778
0.000427462
0.000299251
0.000347666
0.000297425
0.000277985
0.000291692
0.00022271
0.000283884
0.000179676
0.000275451
0.000145968
0.000267185
0.000119259
0.000259496
9.78531e-05
0.000252572
8.05223e-05
0.000246478
6.63711e-05
0.000241207
5.47319e-05
0.000236713
4.50998e-05
0.000232934
3.70878e-05
0.000229798
3.03959e-05
0.000227233
2.47891e-05
0.00022517
2.00806e-05
0.000223544
1.61218e-05
0.000222295
1.27914e-05
0.000221369
9.99139e-06
0.000220719
7.63998e-06
0.0002203
5.66996e-06
0.000220076
4.02443e-06
0.000220013
2.65578e-06
0.000220083
1.5236e-06
0.000220259
5.9305e-07
0.000220522
-1.65433e-07
0.000220852
-7.77414e-07
0.000221233
-1.26519e-06
0.000221652
-1.64747e-06
0.000222098
-1.9407e-06
0.000222561
-2.15882e-06
0.000223033
-2.31365e-06
0.000223508
-2.41571e-06
0.00022398
-2.47424e-06
0.000224446
-2.49697e-06
0.000224902
-2.49044e-06
0.000225344
-2.46033e-06
0.000225773
-2.41155e-06
0.000226185
-2.34819e-06
0.000226579
-2.27373e-06
0.000226957
-2.19108e-06
0.000227316
-2.10267e-06
0.000227657
-2.01052e-06
0.000227979
-1.9163e-06
0.000228285
-1.82136e-06
0.000228573
-1.72681e-06
0.000228844
-1.63357e-06
0.000229099
-1.54231e-06
0.000229338
-1.45359e-06
0.000229563
-1.36783e-06
0.000229773
-1.28531e-06
0.00022997
-1.20625e-06
0.000230154
-1.13077e-06
0.000230326
-1.05893e-06
0.000230486
-9.90747e-07
0.000230636
-9.26217e-07
0.000230776
-8.6528e-07
0.000230906
-8.07854e-07
0.000231027
-7.53836e-07
0.00023114
-7.03117e-07
0.000231245
-6.55565e-07
0.000231343
-6.11049e-07
0.000231434
-5.69425e-07
0.000231519
-5.30558e-07
0.000231598
-4.94312e-07
0.000231671
-4.60563e-07
0.00023174
-4.29169e-07
0.000231804
-4.00006e-07
0.000231863
-3.72944e-07
0.000231918
-3.4787e-07
0.00023197
-3.24663e-07
0.000232018
-3.03224e-07
0.000232063
-2.83448e-07
0.000232105
-2.65242e-07
0.000232145
-2.48502e-07
0.000232182
-2.33161e-07
0.000232217
-2.19136e-07
0.000232249
-2.06358e-07
0.00023228
-1.9476e-07
0.00023231
-1.84271e-07
0.000232337
-1.7486e-07
0.000232364
-1.66452e-07
0.000232389
-1.59013e-07
0.000232413
-1.52509e-07
0.000232436
-1.46891e-07
0.000232459
-1.42139e-07
0.000232481
-1.38235e-07
0.000232502
-1.35147e-07
0.000232524
-1.32865e-07
0.000232544
-1.31378e-07
0.000232565
-1.30673e-07
0.000232586
-1.30756e-07
0.000232607
-1.31625e-07
0.000232628
-1.33298e-07
0.000232649
-1.35774e-07
0.000232672
-1.39081e-07
0.000232694
-1.43235e-07
0.000232718
-1.48259e-07
0.000232742
-1.54192e-07
0.000232768
-1.61072e-07
0.000232795
-1.68944e-07
0.000232823
-1.77853e-07
0.000232853
-1.87858e-07
0.000232884
-1.99025e-07
0.000232918
-2.11426e-07
0.000232954
-2.25135e-07
0.000232992
-2.4024e-07
0.000233033
-2.56827e-07
0.000233076
-2.75023e-07
0.000233123
-2.94922e-07
0.000233174
-3.16654e-07
0.000233228
-3.40369e-07
0.000233286
-3.66212e-07
0.000233348
-3.94324e-07
0.000233416
-4.24903e-07
0.000233488
-4.58153e-07
0.000233567
-4.94273e-07
0.000233651
-5.33495e-07
0.000233743
-5.76074e-07
0.000233841
-6.22265e-07
0.000233948
-6.72378e-07
0.000234063
-7.26735e-07
0.000234188
-7.85685e-07
0.000234322
-8.49617e-07
0.000234468
-9.18927e-07
0.000234625
-9.94078e-07
0.000234796
-1.07556e-06
0.00023498
-1.1639e-06
0.000235179
-1.2597e-06
0.000235395
-1.36359e-06
0.000235629
-1.47623e-06
0.000235882
-1.5984e-06
0.000236155
-1.73092e-06
0.000236452
-1.87469e-06
0.000236773
-2.03069e-06
0.00023712
-2.19999e-06
0.000237497
-2.38376e-06
0.000237905
-2.58329e-06
0.000238346
-2.79997e-06
0.000238825
-3.03537e-06
0.000239344
-3.29116e-06
0.000239906
-3.56922e-06
0.000240516
-3.87158e-06
0.000241177
-4.20052e-06
0.000241894
-4.55852e-06
0.000242671
-4.94833e-06
0.000243515
-5.37301e-06
0.00024443
-5.83589e-06
0.000245424
-6.34075e-06
0.000246503
-6.89174e-06
0.000247674
-7.4935e-06
0.000248947
-8.15122e-06
0.00025033
-8.87067e-06
0.000251834
-9.65837e-06
0.000253469
-1.05216e-05
0.000255249
-1.14686e-05
0.000257186
-1.25086e-05
0.000259295
-1.36522e-05
0.000261593
-1.49112e-05
0.000264099
-1.62993e-05
0.000266831
-1.78322e-05
0.000269814
-1.95275e-05
0.000273073
-2.14058e-05
0.000276634
-2.34909e-05
0.000280529
-2.58102e-05
0.000284793
-2.83959e-05
0.000289464
-3.12852e-05
0.000294586
-3.45222e-05
0.000300208
-3.81587e-05
0.000306383
-4.22563e-05
0.000313172
-4.68881e-05
0.000320644
-5.21418e-05
0.000328873
-5.81231e-05
0.000337943
-6.49597e-05
0.000347946
-7.28071e-05
0.000358983
-8.18558e-05
0.00037116
-9.234e-05
0.000384587
-0.00010455
0.000399375
-0.000118847
0.000415619
-0.000135683
0.000433388
-0.000155626
0.00045269
-0.000179393
0.000473421
-0.000207891
0.000495285
-0.000242264
0.000517647
-0.000283958
0.000539303
-0.000334773
0.00055807