/*--------------------------------*- C++ -*----------------------------------*\
  =========                 |
  \\      /  F ield         | OpenFOAM: The Open Source CFD Toolbox
   \\    /   O peration     | Website:  https://openfoam.org
    \\  /    A nd           | Version:  dev
     \\/     M anipulation  |
\*---------------------------------------------------------------------------*/
FoamFile
{
    version     2.0;
    format      ascii;
    class       volVectorField;
    location    "6";
    object      U;
}
// * * * * * * * * * * * * * * * * * * * * * * * * * * * * * * * * * * * * * //

dimensions      [0 1 -1 0 0 0 0];

internalField   nonuniform List<vector> 
8000
(
(0.0996598 0.000370275 0)
(0.100009 0.000788353 0)
(0.100378 0.000428971 0)
(0.0996841 0.00102438 0)
(0.0983071 0.0012879 0)
(0.0993846 0.00348956 0)
(0.100645 0.00482142 0)
(0.103811 0.00787089 0)
(0.0952169 0.00243253 0)
(0.0968238 0.00680999 0)
(0.0975125 0.0115725 0)
(0.103025 0.0181853 0)
(0.0897132 0.00362245 0)
(0.0914885 0.00946197 0)
(0.0903251 0.0169431 0)
(0.0943632 0.0269585 0)
(0.0823022 0.00459928 0)
(0.0839494 0.0108685 0)
(0.0810803 0.0196306 0)
(0.0817666 0.0313418 0)
(0.0742033 0.00535693 0)
(0.0753533 0.0113746 0)
(0.0713353 0.0205148 0)
(0.0692528 0.0316114 0)
(0.0659453 0.00611728 0)
(0.0666421 0.0115941 0)
(0.0625395 0.02047 0)
(0.0584197 0.0298381 0)
(0.0572598 0.00651411 0)
(0.058654 0.0114365 0)
(0.0549126 0.0196072 0)
(0.0496265 0.0272603 0)
(0.0488764 0.00580756 0)
(0.0513461 0.0103066 0)
(0.04821 0.0175913 0)
(0.0428984 0.0238049 0)
(0.0420476 0.00431777 0)
(0.0450208 0.00838744 0)
(0.0425251 0.0146806 0)
(0.0380013 0.0195574 0)
(0.0369567 0.00293701 0)
(0.0397828 0.00649688 0)
(0.0378915 0.0116686 0)
(0.0344 0.015417 0)
(0.0331424 0.00203415 0)
(0.0355609 0.00506197 0)
(0.0341848 0.0091229 0)
(0.0315646 0.0120547 0)
(0.0301744 0.00150644 0)
(0.0322344 0.00402955 0)
(0.0312415 0.00716386 0)
(0.0292549 0.0095111 0)
(0.027799 0.00117105 0)
(0.0296279 0.00325365 0)
(0.0288979 0.00567875 0)
(0.0273684 0.00758572 0)
(0.0258728 0.000927186 0)
(0.0275664 0.00264326 0)
(0.0270171 0.00454117 0)
(0.0258226 0.0061015 0)
(0.0243051 0.000738682 0)
(0.0259181 0.00215435 0)
(0.025495 0.00365767 0)
(0.024551 0.00493927 0)
(0.0230277 0.000591199 0)
(0.0245886 0.00176007 0)
(0.0242561 0.00296254 0)
(0.0235027 0.00401765 0)
(0.0219851 0.000475246 0)
(0.0235095 0.00144037 0)
(0.023244 0.00240915 0)
(0.0226378 0.00327871 0)
(0.0211333 0.000383389 0)
(0.0226302 0.00117968 0)
(0.0224154 0.00196406 0)
(0.0219241 0.00268045 0)
(0.020437 0.00030997 0)
(0.0219119 0.000965932 0)
(0.0217367 0.0016029 0)
(0.021336 0.00219205 0)
(0.0198682 0.000250798 0)
(0.0213248 0.000789782 0)
(0.0211813 0.00130765 0)
(0.0208528 0.00179055 0)
(0.0194044 0.00020274 0)
(0.0208455 0.00064398 0)
(0.020728 0.00106469 0)
(0.0204574 0.00145864 0)
(0.0190274 0.000163426 0)
(0.0204554 0.000522844 0)
(0.0203595 0.000863647 0)
(0.0201356 0.00118299 0)
(0.0187226 0.000131068 0)
(0.0201393 0.000421927 0)
(0.0200618 0.000696572 0)
(0.019876 0.000953335 0)
(0.0184778 0.000104306 0)
(0.0198849 0.000337691 0)
(0.0198231 0.000557275 0)
(0.0196685 0.000761555 0)
(0.0182831 8.21025e-05 0)
(0.0196822 0.000267311 0)
(0.0196338 0.000440919 0)
(0.019505 0.000601226 0)
(0.0181302 6.36369e-05 0)
(0.0195227 0.000208478 0)
(0.0194859 0.000343637 0)
(0.0193785 0.000467129 0)
(0.0180123 4.82629e-05 0)
(0.0193994 0.000159322 0)
(0.0193725 0.000262314 0)
(0.0192831 0.000355069 0)
(0.0179236 3.54697e-05 0)
(0.0193064 0.000118314 0)
(0.0192879 0.000194431 0)
(0.0192136 0.000261571 0)
(0.0178591 2.48382e-05 0)
(0.0192385 8.41747e-05 0)
(0.0192274 0.000137896 0)
(0.0191657 0.000183777 0)
(0.017815 1.60373e-05 0)
(0.0191918 5.58744e-05 0)
(0.0191868 9.101e-05 0)
(0.0191359 0.000119311 0)
(0.0177875 8.76905e-06 0)
(0.0191623 3.24808e-05 0)
(0.0191627 5.22808e-05 0)
(0.0191209 6.61528e-05 0)
(0.0177738 2.78764e-06 0)
(0.0191472 1.33064e-05 0)
(0.0191521 2.05498e-05 0)
(0.019118 2.26329e-05 0)
(0.0177714 -2.0181e-06 0)
(0.0191438 -2.22911e-06 0)
(0.0191526 -5.22739e-06 0)
(0.019125 -1.2707e-05 0)
(0.017778 -5.77761e-06 0)
(0.0191497 -1.46816e-05 0)
(0.0191619 -2.59627e-05 0)
(0.0191399 -4.11301e-05 0)
(0.0177919 -8.90456e-06 0)
(0.0191633 -2.47723e-05 0)
(0.0191784 -4.26061e-05 0)
(0.0191611 -6.37675e-05 0)
(0.0178116 -1.13348e-05 0)
(0.019183 -3.26708e-05 0)
(0.0192004 -5.56415e-05 0)
(0.0191872 -8.14771e-05 0)
(0.0178358 -1.31755e-05 0)
(0.0192072 -3.87214e-05 0)
(0.0192268 -6.56205e-05 0)
(0.019217 -9.49717e-05 0)
(0.0178633 -1.45328e-05 0)
(0.0192351 -4.32274e-05 0)
(0.0192564 -7.30429e-05 0)
(0.0192494 -0.000104933 0)
(0.0178934 -1.54877e-05 0)
(0.0192655 -4.64406e-05 0)
(0.0192883 -7.83104e-05 0)
(0.0192836 -0.000111946 0)
(0.0179251 -1.61076e-05 0)
(0.0192977 -4.85758e-05 0)
(0.0193218 -8.17851e-05 0)
(0.019319 -0.000116503 0)
(0.0179579 -1.64453e-05 0)
(0.0193311 -4.98227e-05 0)
(0.0193561 -8.37899e-05 0)
(0.019355 -0.000119019 0)
(0.0179912 -1.65506e-05 0)
(0.019365 -5.03345e-05 0)
(0.0193909 -8.45819e-05 0)
(0.0193911 -0.000119866 0)
(0.0180247 -1.64772e-05 0)
(0.019399 -5.0247e-05 0)
(0.0194257 -8.43813e-05 0)
(0.0194269 -0.00011937 0)
(0.0180578 -1.62623e-05 0)
(0.0194329 -4.96775e-05 0)
(0.01946 -8.3379e-05 0)
(0.0194621 -0.000117792 0)
(0.0180904 -1.59243e-05 0)
(0.0194662 -4.87253e-05 0)
(0.0194938 -8.17391e-05 0)
(0.0194966 -0.000115342 0)
(0.0181223 -1.5485e-05 0)
(0.0194987 -4.74777e-05 0)
(0.0195267 -7.96051e-05 0)
(0.01953 -0.000112213 0)
(0.0181533 -1.4975e-05 0)
(0.0195304 -4.60014e-05 0)
(0.0195586 -7.70963e-05 0)
(0.0195622 -0.000108577 0)
(0.0181832 -1.44192e-05 0)
(0.0195609 -4.43524e-05 0)
(0.0195893 -7.43092e-05 0)
(0.0195933 -0.000104568 0)
(0.018212 -1.38319e-05 0)
(0.0195903 -4.25818e-05 0)
(0.0196189 -7.13239e-05 0)
(0.019623 -0.000100299 0)
(0.0182395 -1.32217e-05 0)
(0.0196185 -4.07332e-05 0)
(0.0196471 -6.82092e-05 0)
(0.0196514 -9.58646e-05 0)
(0.0182658 -1.25959e-05 0)
(0.0196454 -3.88407e-05 0)
(0.0196741 -6.50238e-05 0)
(0.0196784 -9.1342e-05 0)
(0.0182909 -1.19639e-05 0)
(0.019671 -3.6931e-05 0)
(0.0196997 -6.18143e-05 0)
(0.019704 -8.67921e-05 0)
(0.0183146 -1.13358e-05 0)
(0.0196953 -3.50269e-05 0)
(0.019724 -5.86175e-05 0)
(0.0197283 -8.22668e-05 0)
(0.0183371 -1.0719e-05 0)
(0.0197184 -3.31475e-05 0)
(0.019747 -5.54634e-05 0)
(0.0197512 -7.78092e-05 0)
(0.0183584 -1.01171e-05 0)
(0.0197401 -3.1306e-05 0)
(0.0197688 -5.23754e-05 0)
(0.0197729 -7.34522e-05 0)
(0.0183785 -9.53278e-06 0)
(0.0197607 -2.95138e-05 0)
(0.0197893 -4.93719e-05 0)
(0.0197933 -6.92196e-05 0)
(0.0183974 -8.96689e-06 0)
(0.0197801 -2.778e-05 0)
(0.0198085 -4.64671e-05 0)
(0.0198124 -6.51284e-05 0)
(0.0184152 -8.42198e-06 0)
(0.0197983 -2.61117e-05 0)
(0.0198267 -4.36718e-05 0)
(0.0198304 -6.11936e-05 0)
(0.0184319 -7.89964e-06 0)
(0.0198154 -2.45127e-05 0)
(0.0198437 -4.09929e-05 0)
(0.0198473 -5.74255e-05 0)
(0.0184476 -7.40121e-06 0)
(0.0198314 -2.29852e-05 0)
(0.0198597 -3.84347e-05 0)
(0.0198631 -5.38307e-05 0)
(0.0184622 -6.92748e-06 0)
(0.0198465 -2.15307e-05 0)
(0.0198746 -3.59995e-05 0)
(0.0198779 -5.04116e-05 0)
(0.018476 -6.47873e-06 0)
(0.0198606 -2.01506e-05 0)
(0.0198886 -3.36874e-05 0)
(0.0198918 -4.71686e-05 0)
(0.0184888 -6.05486e-06 0)
(0.0198737 -1.88445e-05 0)
(0.0199017 -3.14969e-05 0)
(0.0199047 -4.41011e-05 0)
(0.0185009 -5.65445e-06 0)
(0.0198861 -1.76111e-05 0)
(0.0199139 -2.94276e-05 0)
(0.0199168 -4.12053e-05 0)
(0.0185121 -5.27601e-06 0)
(0.0198976 -1.64481e-05 0)
(0.0199254 -2.74776e-05 0)
(0.0199281 -3.84764e-05 0)
(0.0185226 -4.91937e-06 0)
(0.0199083 -1.53542e-05 0)
(0.019936 -2.56439e-05 0)
(0.0199386 -3.59083e-05 0)
(0.0185323 -4.58459e-06 0)
(0.0199183 -1.43262e-05 0)
(0.019946 -2.39221e-05 0)
(0.0199484 -3.34971e-05 0)
(0.0185414 -4.27129e-06 0)
(0.0199277 -1.33619e-05 0)
(0.0199553 -2.23089e-05 0)
(0.0199575 -3.12366e-05 0)
(0.0185499 -3.97867e-06 0)
(0.0199364 -1.24582e-05 0)
(0.0199639 -2.07993e-05 0)
(0.0199661 -2.91213e-05 0)
(0.0185579 -3.7055e-06 0)
(0.0199446 -1.16132e-05 0)
(0.019972 -1.9389e-05 0)
(0.019974 -2.71441e-05 0)
(0.0185652 -3.45081e-06 0)
(0.0199521 -1.08246e-05 0)
(0.0199795 -1.80725e-05 0)
(0.0199814 -2.52993e-05 0)
(0.0185721 -3.21338e-06 0)
(0.0199592 -1.00892e-05 0)
(0.0199865 -1.68447e-05 0)
(0.0199883 -2.35804e-05 0)
(0.0185785 -2.99155e-06 0)
(0.0199658 -9.40412e-06 0)
(0.019993 -1.57016e-05 0)
(0.0199947 -2.19806e-05 0)
(0.0185845 -2.78436e-06 0)
(0.019972 -8.76725e-06 0)
(0.0199991 -1.4639e-05 0)
(0.0200007 -2.04932e-05 0)
(0.01859 -2.59195e-06 0)
(0.0199777 -8.17626e-06 0)
(0.0200048 -1.36523e-05 0)
(0.0200063 -1.91115e-05 0)
(0.0185952 -2.41429e-06 0)
(0.019983 -7.62855e-06 0)
(0.0200101 -1.27367e-05 0)
(0.0200115 -1.78303e-05 0)
(0.0186001 -2.25062e-06 0)
(0.019988 -7.12088e-06 0)
(0.020015 -1.18877e-05 0)
(0.0200164 -1.66447e-05 0)
(0.0186046 -2.09917e-06 0)
(0.0199927 -6.65096e-06 0)
(0.0200197 -1.11032e-05 0)
(0.0200209 -1.55487e-05 0)
(0.0186088 -1.95907e-06 0)
(0.0199971 -6.21674e-06 0)
(0.020024 -1.03795e-05 0)
(0.0200252 -1.45374e-05 0)
(0.0186128 -1.83011e-06 0)
(0.0200011 -5.81734e-06 0)
(0.020028 -9.7137e-06 0)
(0.0200291 -1.36057e-05 0)
(0.0186165 -1.71179e-06 0)
(0.020005 -5.45029e-06 0)
(0.0200318 -9.10117e-06 0)
(0.0200329 -1.27489e-05 0)
(0.0186199 -1.60312e-06 0)
(0.0200085 -5.11314e-06 0)
(0.0200353 -8.53924e-06 0)
(0.0200363 -1.19634e-05 0)
(0.0186232 -1.50308e-06 0)
(0.0200119 -4.80396e-06 0)
(0.0200387 -8.02524e-06 0)
(0.0200396 -1.12452e-05 0)
(0.0186262 -1.41163e-06 0)
(0.0200151 -4.52262e-06 0)
(0.0200418 -7.55752e-06 0)
(0.0200427 -1.05901e-05 0)
(0.0186291 -1.32878e-06 0)
(0.0200181 -4.26732e-06 0)
(0.0200447 -7.1328e-06 0)
(0.0200456 -9.99487e-06 0)
(0.0186318 -1.25447e-06 0)
(0.0200209 -4.03688e-06 0)
(0.0200475 -6.74838e-06 0)
(0.0200483 -9.45696e-06 0)
(0.0186344 -1.18804e-06 0)
(0.0200236 -3.82913e-06 0)
(0.0200502 -6.40194e-06 0)
(0.0200509 -8.97361e-06 0)
(0.0186368 -1.12837e-06 0)
(0.0200261 -3.64323e-06 0)
(0.0200527 -6.09287e-06 0)
(0.0200534 -8.54237e-06 0)
(0.0186391 -1.07524e-06 0)
(0.0200285 -3.47856e-06 0)
(0.0200551 -5.81948e-06 0)
(0.0200558 -8.16058e-06 0)
(0.0186414 -1.02878e-06 0)
(0.0200309 -3.33446e-06 0)
(0.0200574 -5.58055e-06 0)
(0.020058 -7.82614e-06 0)
(0.0186435 -9.88765e-07 0)
(0.0200331 -3.21004e-06 0)
(0.0200596 -5.37365e-06 0)
(0.0200602 -7.53761e-06 0)
(0.0186455 -9.54497e-07 0)
(0.0200353 -3.10387e-06 0)
(0.0200617 -5.1984e-06 0)
(0.0200623 -7.29383e-06 0)
(0.0186475 -9.25436e-07 0)
(0.0200373 -3.01613e-06 0)
(0.0200638 -5.05426e-06 0)
(0.0200643 -7.09309e-06 0)
(0.0186495 -9.01991e-07 0)
(0.0200394 -2.94682e-06 0)
(0.0200658 -4.94104e-06 0)
(0.0200663 -6.9343e-06 0)
(0.0186514 -8.84917e-07 0)
(0.0200414 -2.89604e-06 0)
(0.0200678 -4.85725e-06 0)
(0.0200682 -6.81597e-06 0)
(0.0186532 -8.74225e-07 0)
(0.0200434 -2.86269e-06 0)
(0.0200698 -4.80131e-06 0)
(0.0200701 -6.73826e-06 0)
(0.0186551 -8.6897e-07 0)
(0.0200453 -2.84577e-06 0)
(0.0200717 -4.77318e-06 0)
(0.020072 -6.70127e-06 0)
(0.0186569 -8.68085e-07 0)
(0.0200473 -2.84508e-06 0)
(0.0200736 -4.77475e-06 0)
(0.0200739 -6.70555e-06 0)
(0.0186588 -8.72024e-07 0)
(0.0200492 -2.86188e-06 0)
(0.0200756 -4.80601e-06 0)
(0.0200758 -6.75039e-06 0)
(0.0186607 -8.81982e-07 0)
(0.0200512 -2.89715e-06 0)
(0.0200775 -4.8671e-06 0)
(0.0200778 -6.83537e-06 0)
(0.0186626 -8.98154e-07 0)
(0.0200532 -2.95068e-06 0)
(0.0200795 -4.95746e-06 0)
(0.0200797 -6.96139e-06 0)
(0.0186645 -9.20536e-07 0)
(0.0200553 -3.02184e-06 0)
(0.0200816 -5.07681e-06 0)
(0.0200817 -7.12998e-06 0)
(0.0186665 -9.47955e-07 0)
(0.0200574 -3.11038e-06 0)
(0.0200837 -5.22714e-06 0)
(0.0200838 -7.34287e-06 0)
(0.0186685 -9.80269e-07 0)
(0.0200596 -3.21805e-06 0)
(0.0200858 -5.41115e-06 0)
(0.0200859 -7.60118e-06 0)
(0.0186707 -1.01852e-06 0)
(0.0200619 -3.34619e-06 0)
(0.020088 -5.62912e-06 0)
(0.0200881 -7.90582e-06 0)
(0.0186729 -1.06397e-06 0)
(0.0200642 -3.49597e-06 0)
(0.0200904 -5.88207e-06 0)
(0.0200904 -8.2582e-06 0)
(0.0186752 -1.11722e-06 0)
(0.0200667 -3.66785e-06 0)
(0.0200928 -6.16996e-06 0)
(0.0200928 -8.6607e-06 0)
(0.0186777 -1.17765e-06 0)
(0.0200693 -3.86146e-06 0)
(0.0200954 -6.49475e-06 0)
(0.0200953 -9.11645e-06 0)
(0.0186802 -1.24443e-06 0)
(0.020072 -4.0779e-06 0)
(0.0200981 -6.85993e-06 0)
(0.0200979 -9.62942e-06 0)
(0.018683 -1.31833e-06 0)
(0.0200749 -4.31966e-06 0)
(0.020101 -7.26846e-06 0)
(0.0201007 -1.02026e-05 0)
(0.0186859 -1.4003e-06 0)
(0.020078 -4.58919e-06 0)
(0.020104 -7.72362e-06 0)
(0.0201037 -1.08391e-05 0)
(0.0186889 -1.49248e-06 0)
(0.0200813 -4.88849e-06 0)
(0.0201072 -8.22657e-06 0)
(0.0201069 -1.15423e-05 0)
(0.0186922 -1.59543e-06 0)
(0.0200847 -5.21879e-06 0)
(0.0201106 -8.77966e-06 0)
(0.0201103 -1.23165e-05 0)
(0.0186957 -1.70899e-06 0)
(0.0200885 -5.58079e-06 0)
(0.0201143 -9.38574e-06 0)
(0.0201139 -1.31669e-05 0)
(0.0186995 -1.83224e-06 0)
(0.0200924 -5.97618e-06 0)
(0.0201183 -1.00502e-05 0)
(0.0201177 -1.41002e-05 0)
(0.0187035 -1.9657e-06 0)
(0.0200967 -6.40828e-06 0)
(0.0201225 -1.07784e-05 0)
(0.0201219 -1.51218e-05 0)
(0.0187078 -2.11079e-06 0)
(0.0201013 -6.88107e-06 0)
(0.020127 -1.15757e-05 0)
(0.0201263 -1.6238e-05 0)
(0.0187125 -2.26952e-06 0)
(0.0201062 -7.3983e-06 0)
(0.0201318 -1.24462e-05 0)
(0.0201311 -1.74552e-05 0)
(0.0187174 -2.44423e-06 0)
(0.0201115 -7.96337e-06 0)
(0.0201371 -1.33942e-05 0)
(0.0201362 -1.87811e-05 0)
(0.0187228 -2.63529e-06 0)
(0.0201172 -8.57803e-06 0)
(0.0201427 -1.44248e-05 0)
(0.0201417 -2.02235e-05 0)
(0.0187286 -2.84315e-06 0)
(0.0201233 -9.24532e-06 0)
(0.0201487 -1.55439e-05 0)
(0.0201476 -2.17923e-05 0)
(0.0187349 -3.06832e-06 0)
(0.0201299 -9.96993e-06 0)
(0.0201553 -1.67608e-05 0)
(0.020154 -2.34985e-05 0)
(0.0187416 -3.31242e-06 0)
(0.020137 -1.07574e-05 0)
(0.0201623 -1.80842e-05 0)
(0.0201609 -2.53529e-05 0)
(0.0187489 -3.57771e-06 0)
(0.0201447 -1.16132e-05 0)
(0.0201699 -1.9522e-05 0)
(0.0201684 -2.73666e-05 0)
(0.0187567 -3.86587e-06 0)
(0.020153 -1.2543e-05 0)
(0.0201781 -2.10831e-05 0)
(0.0201764 -2.95523e-05 0)
(0.0187652 -4.1794e-06 0)
(0.020162 -1.3552e-05 0)
(0.0201869 -2.27766e-05 0)
(0.0201851 -3.19241e-05 0)
(0.0187744 -4.52028e-06 0)
(0.0201717 -1.46463e-05 0)
(0.0201965 -2.46132e-05 0)
(0.0201945 -3.44976e-05 0)
(0.0187843 -4.88923e-06 0)
(0.0201821 -1.58329e-05 0)
(0.0202068 -2.66056e-05 0)
(0.0202046 -3.72892e-05 0)
(0.0187951 -5.28784e-06 0)
(0.0201935 -1.71191e-05 0)
(0.020218 -2.87677e-05 0)
(0.0202156 -4.03174e-05 0)
(0.0188067 -5.7198e-06 0)
(0.0202057 -1.85149e-05 0)
(0.0202301 -3.11137e-05 0)
(0.0202274 -4.36013e-05 0)
(0.0188192 -6.18863e-06 0)
(0.0202189 -2.00295e-05 0)
(0.0202431 -3.36581e-05 0)
(0.0202403 -4.71623e-05 0)
(0.0188328 -6.69856e-06 0)
(0.0202332 -2.1673e-05 0)
(0.0202573 -3.64171e-05 0)
(0.0202541 -5.10234e-05 0)
(0.0188475 -7.25286e-06 0)
(0.0202487 -2.34553e-05 0)
(0.0202725 -3.94074e-05 0)
(0.0202691 -5.52094e-05 0)
(0.0188634 -7.85438e-06 0)
(0.0202655 -2.53872e-05 0)
(0.0202891 -4.26488e-05 0)
(0.0202853 -5.97487e-05 0)
(0.0188806 -8.5062e-06 0)
(0.0202836 -2.74812e-05 0)
(0.020307 -4.6164e-05 0)
(0.0203029 -6.46722e-05 0)
(0.0188993 -9.21202e-06 0)
(0.0203032 -2.97522e-05 0)
(0.0203264 -4.9978e-05 0)
(0.0203219 -7.00127e-05 0)
(0.0189195 -9.97719e-06 0)
(0.0203245 -3.22162e-05 0)
(0.0203473 -5.41163e-05 0)
(0.0203425 -7.58057e-05 0)
(0.0189413 -1.08081e-05 0)
(0.0203475 -3.48905e-05 0)
(0.02037 -5.86062e-05 0)
(0.0203647 -8.20895e-05 0)
(0.018965 -1.17104e-05 0)
(0.0203724 -3.77924e-05 0)
(0.0203946 -6.34772e-05 0)
(0.0203888 -8.89063e-05 0)
(0.0189907 -1.26898e-05 0)
(0.0203994 -4.09409e-05 0)
(0.0204213 -6.87627e-05 0)
(0.0204149 -9.6303e-05 0)
(0.0190185 -1.37528e-05 0)
(0.0204287 -4.43579e-05 0)
(0.0204501 -7.44993e-05 0)
(0.0204432 -0.000104331 0)
(0.0190486 -1.49068e-05 0)
(0.0204603 -4.80681e-05 0)
(0.0204814 -8.07283e-05 0)
(0.0204739 -0.000113047 0)
(0.0190813 -1.61604e-05 0)
(0.0204947 -5.20978e-05 0)
(0.0205152 -8.74927e-05 0)
(0.020507 -0.00012251 0)
(0.0191167 -1.75229e-05 0)
(0.0205319 -5.64754e-05 0)
(0.0205519 -9.484e-05 0)
(0.020543 -0.000132787 0)
(0.019155 -1.90038e-05 0)
(0.0205722 -6.1232e-05 0)
(0.0205917 -0.000102822 0)
(0.020582 -0.000143952 0)
(0.0191967 -2.0614e-05 0)
(0.0206159 -6.64017e-05 0)
(0.0206348 -0.000111498 0)
(0.0206242 -0.000156086 0)
(0.0192418 -2.23658e-05 0)
(0.0206633 -7.20235e-05 0)
(0.0206815 -0.00012093 0)
(0.02067 -0.000169276 0)
(0.0192908 -2.42721e-05 0)
(0.0207147 -7.81387e-05 0)
(0.0207322 -0.000131189 0)
(0.0207197 -0.000183622 0)
(0.0193439 -2.63478e-05 0)
(0.0207705 -8.47934e-05 0)
(0.0207872 -0.000142351 0)
(0.0207736 -0.000199228 0)
(0.0194016 -2.86076e-05 0)
(0.0208311 -9.20378e-05 0)
(0.0208469 -0.000154502 0)
(0.020832 -0.000216215 0)
(0.0194642 -3.10688e-05 0)
(0.0208968 -9.99284e-05 0)
(0.0209117 -0.000167737 0)
(0.0208954 -0.000234713 0)
(0.0195322 -3.37505e-05 0)
(0.0209681 -0.000108528 0)
(0.020982 -0.00018216 0)
(0.0209642 -0.000254868 0)
(0.0196061 -3.66761e-05 0)
(0.0210456 -0.000117909 0)
(0.0210583 -0.000197889 0)
(0.0210389 -0.000276839 0)
(0.0196864 -3.98712e-05 0)
(0.0211297 -0.000128146 0)
(0.0211412 -0.00021505 0)
(0.02112 -0.000300806 0)
(0.0197737 -4.33633e-05 0)
(0.0212212 -0.000139327 0)
(0.0212313 -0.000233784 0)
(0.0212081 -0.000326965 0)
(0.0198686 -4.71818e-05 0)
(0.0213207 -0.000151544 0)
(0.0213292 -0.000254251 0)
(0.0213038 -0.000355537 0)
(0.0199719 -5.13606e-05 0)
(0.0214288 -0.000164906 0)
(0.0214357 -0.00027663 0)
(0.0214079 -0.000386772 0)
(0.0200843 -5.59363e-05 0)
(0.0215465 -0.000179531 0)
(0.0215515 -0.000301121 0)
(0.021521 -0.000420946 0)
(0.0202068 -6.09519e-05 0)
(0.0216747 -0.000195558 0)
(0.0216775 -0.000327951 0)
(0.0216441 -0.000458369 0)
(0.0203402 -6.64563e-05 0)
(0.0218142 -0.000213138 0)
(0.0218148 -0.000357372 0)
(0.0217781 -0.000499393 0)
(0.0204857 -7.25058e-05 0)
(0.0219663 -0.000232445 0)
(0.0219643 -0.00038967 0)
(0.021924 -0.00054441 0)
(0.0206445 -7.91621e-05 0)
(0.0221322 -0.000253674 0)
(0.0221274 -0.000425169 0)
(0.022083 -0.000593865 0)
(0.0208178 -8.64948e-05 0)
(0.0223133 -0.000277045 0)
(0.0223052 -0.000464237 0)
(0.0222563 -0.000648265 0)
(0.0210072 -9.45855e-05 0)
(0.022511 -0.000302813 0)
(0.0224993 -0.000507291 0)
(0.0224454 -0.000708185 0)
(0.0212144 -0.000103528 0)
(0.022727 -0.000331269 0)
(0.0227113 -0.00055481 0)
(0.0226518 -0.000774281 0)
(0.0214412 -0.00011343 0)
(0.0229634 -0.000362745 0)
(0.0229431 -0.000607343 0)
(0.0228772 -0.000847306 0)
(0.0216897 -0.000124414 0)
(0.0232222 -0.000397625 0)
(0.0231968 -0.000665522 0)
(0.0231237 -0.000928126 0)
(0.0219624 -0.000136624 0)
(0.0235058 -0.000436355 0)
(0.0234747 -0.000730081 0)
(0.0233934 -0.00101774 0)
(0.0222618 -0.000150228 0)
(0.0238171 -0.000479456 0)
(0.0237793 -0.000801871 0)
(0.0236889 -0.00111731 0)
(0.0225912 -0.000165424 0)
(0.0241591 -0.000527532 0)
(0.0241138 -0.000881884 0)
(0.0240128 -0.00122818 0)
(0.022954 -0.000182444 0)
(0.0245353 -0.000581295 0)
(0.0244813 -0.00097128 0)
(0.0243684 -0.00135192 0)
(0.0233542 -0.000201561 0)
(0.0249498 -0.000641583 0)
(0.0248859 -0.00107143 0)
(0.0247592 -0.0014904 0)
(0.0237964 -0.000223103 0)
(0.0254072 -0.000709395 0)
(0.0253318 -0.00118396 0)
(0.0251893 -0.00164579 0)
(0.0242861 -0.000247461 0)
(0.0259129 -0.000785924 0)
(0.0258242 -0.0013108 0)
(0.0256633 -0.00182071 0)
(0.0248294 -0.000275111 0)
(0.026473 -0.000872602 0)
(0.0263687 -0.00145426 0)
(0.0261864 -0.00201824 0)
(0.0254337 -0.000306626 0)
(0.0270947 -0.000971159 0)
(0.0269721 -0.00161715 0)
(0.0267649 -0.00224212 0)
(0.0261075 -0.00034271 0)
(0.0277865 -0.00108371 0)
(0.0276423 -0.00180285 0)
(0.0274056 -0.00249687 0)
(0.0268609 -0.000384232 0)
(0.0285581 -0.00121286 0)
(0.0283884 -0.00201552 0)
(0.0281167 -0.00278798 0)
(0.0277061 -0.000432273 0)
(0.0294214 -0.00136181 0)
(0.029221 -0.00226029 0)
(0.0289077 -0.0031222 0)
(0.0286575 -0.000488193 0)
(0.0303903 -0.00153457 0)
(0.0301528 -0.00254351 0)
(0.0297896 -0.00350785 0)
(0.0297326 -0.000553713 0)
(0.0314814 -0.00173621 0)
(0.0311991 -0.00287319 0)
(0.0307752 -0.00395534 0)
(0.0309528 -0.00063104 0)
(0.0327151 -0.00197316 0)
(0.0323777 -0.00325946 0)
(0.0318799 -0.00447774 0)
(0.0323445 -0.000723036 0)
(0.0341162 -0.00225373 0)
(0.0337106 -0.00371529 0)
(0.0331216 -0.00509166 0)
(0.0339404 -0.000833451 0)
(0.0357151 -0.00258872 0)
(0.0352242 -0.00425745 0)
(0.0345216 -0.00581839 0)
(0.0357818 -0.000967272 0)
(0.0375497 -0.00299241 0)
(0.0369509 -0.00490796 0)
(0.0361053 -0.00668554 0)
(0.0379212 -0.00113122 0)
(0.0396679 -0.00348388 0)
(0.0389309 -0.00569602 0)
(0.0379031 -0.00772934 0)
(0.0404265 -0.00133449 0)
(0.0421305 -0.00408909 0)
(0.0412139 -0.00666093 0)
(0.0399511 -0.00899786 0)
(0.0433861 -0.00158988 0)
(0.0450162 -0.00484386 0)
(0.043863 -0.00785645 0)
(0.0422924 -0.0105558 0)
(0.0469197 -0.00191537 0)
(0.0484282 -0.00579832 0)
(0.0469574 -0.00935718 0)
(0.0449782 -0.0124913 0)
(0.0511813 -0.00233772 0)
(0.0525036 -0.00702529 0)
(0.0506002 -0.0112686 0)
(0.0480683 -0.0149263 0)
(0.0564125 -0.0028923 0)
(0.0574292 -0.00862638 0)
(0.0549204 -0.0137428 0)
(0.0516308 -0.0180329 0)
(0.0628486 -0.00364519 0)
(0.0634599 -0.0107694 0)
(0.0601033 -0.0170024 0)
(0.0557438 -0.0220542 0)
(0.0711803 -0.00466008 0)
(0.0709702 -0.0136519 0)
(0.0663402 -0.0213809 0)
(0.0604706 -0.0273558 0)
(0.0811823 -0.00610445 0)
(0.0804142 -0.0177367 0)
(0.0740969 -0.0273912 0)
(0.0659308 -0.0344399 0)
(0.0964812 -0.00818943 0)
(0.0928732 -0.023324 0)
(0.0833636 -0.0358103 0)
(0.0719202 -0.0442347 0)
(0.110188 -0.0106505 0)
(0.107896 -0.0312689 0)
(0.0963948 -0.0478699 0)
(0.079446 -0.0577036 0)
(0.145796 -0.0162425 0)
(0.133511 -0.0443915 0)
(0.110646 -0.0658697 0)
(0.0844235 -0.0782415 0)
(0.157023 -0.0171314 0)
(0.150795 -0.0526576 0)
(0.134363 -0.0876976 0)
(0.103972 -0.105939 0)
(0.245175 -0.0338283 0)
(0.224348 -0.0978631 0)
(0.175597 -0.147965 0)
(0.101181 -0.167656 0)
(0.00541237 -0.0171818 0)
(0.036449 -0.00560577 0)
(0.059656 0.0152427 0)
(0.0645893 0.0302099 0)
(0.0614638 0.0385458 0)
(0.0547472 0.0411321 0)
(0.0467088 0.0392307 0)
(0.0396472 0.0347404 0)
(0.0350022 0.0289845 0)
(0.0321836 0.0230654 0)
(0.0301134 0.0180543 0)
(0.02833 0.0142097 0)
(0.0267892 0.0113045 0)
(0.0254691 0.00907678 0)
(0.0243415 0.00734094 0)
(0.0233825 0.00597008 0)
(0.0225705 0.00487466 0)
(0.0218865 0.00399025 0)
(0.0213133 0.00326985 0)
(0.0208356 0.00267861 0)
(0.0204403 0.00219037 0)
(0.0201155 0.00178515 0)
(0.0198512 0.00144751 0)
(0.0196387 0.00116541 0)
(0.0194702 0.000929263 0)
(0.0193391 0.000731475 0)
(0.0192398 0.000565808 0)
(0.0191672 0.000427232 0)
(0.019117 0.00031154 0)
(0.0190856 0.000215284 0)
(0.0190696 0.000135533 0)
(0.0190664 6.98415e-05 0)
(0.0190736 1.61072e-05 0)
(0.0190891 -2.74497e-05 0)
(0.0191113 -6.24187e-05 0)
(0.0191387 -9.01062e-05 0)
(0.0191699 -0.000111627 0)
(0.019204 -0.000127944 0)
(0.0192401 -0.000139854 0)
(0.0192774 -0.000148077 0)
(0.0193153 -0.000153263 0)
(0.0193534 -0.00015594 0)
(0.0193912 -0.000156542 0)
(0.0194284 -0.000155467 0)
(0.0194647 -0.000153054 0)
(0.0195 -0.000149588 0)
(0.019534 -0.000145307 0)
(0.0195668 -0.000140411 0)
(0.0195982 -0.000135069 0)
(0.0196281 -0.00012942 0)
(0.0196567 -0.000123584 0)
(0.0196837 -0.000117655 0)
(0.0197094 -0.000111712 0)
(0.0197336 -0.000105819 0)
(0.0197564 -0.000100026 0)
(0.0197779 -9.43732e-05 0)
(0.0197981 -8.88896e-05 0)
(0.0198171 -8.36001e-05 0)
(0.0198349 -7.85213e-05 0)
(0.0198516 -7.36623e-05 0)
(0.0198672 -6.9028e-05 0)
(0.0198818 -6.46213e-05 0)
(0.0198955 -6.04445e-05 0)
(0.0199082 -5.64957e-05 0)
(0.0199201 -5.27704e-05 0)
(0.0199312 -4.92633e-05 0)
(0.0199415 -4.59686e-05 0)
(0.0199512 -4.28774e-05 0)
(0.0199601 -3.99801e-05 0)
(0.0199685 -3.72681e-05 0)
(0.0199763 -3.47331e-05 0)
(0.0199835 -3.23683e-05 0)
(0.0199903 -3.01645e-05 0)
(0.0199966 -2.81133e-05 0)
(0.0200024 -2.62068e-05 0)
(0.0200079 -2.44379e-05 0)
(0.020013 -2.27989e-05 0)
(0.0200177 -2.12819e-05 0)
(0.0200222 -1.98793e-05 0)
(0.0200263 -1.85842e-05 0)
(0.0200302 -1.73919e-05 0)
(0.0200338 -1.62964e-05 0)
(0.0200372 -1.52916e-05 0)
(0.0200404 -1.43728e-05 0)
(0.0200434 -1.35347e-05 0)
(0.0200463 -1.27742e-05 0)
(0.0200489 -1.20874e-05 0)
(0.0200515 -1.14703e-05 0)
(0.0200539 -1.09192e-05 0)
(0.0200562 -1.0431e-05 0)
(0.0200584 -1.00035e-05 0)
(0.0200605 -9.63588e-06 0)
(0.0200625 -9.3244e-06 0)
(0.0200645 -9.06783e-06 0)
(0.0200664 -8.86466e-06 0)
(0.0200683 -8.71391e-06 0)
(0.0200702 -8.616e-06 0)
(0.0200721 -8.57042e-06 0)
(0.0200739 -8.57599e-06 0)
(0.0200758 -8.63309e-06 0)
(0.0200776 -8.74188e-06 0)
(0.0200795 -8.90406e-06 0)
(0.0200815 -9.121e-06 0)
(0.0200835 -9.39397e-06 0)
(0.0200855 -9.72404e-06 0)
(0.0200877 -1.01135e-05 0)
(0.0200899 -1.05642e-05 0)
(0.0200922 -1.108e-05 0)
(0.0200947 -1.16646e-05 0)
(0.0200973 -1.23217e-05 0)
(0.0201 -1.30553e-05 0)
(0.0201029 -1.38694e-05 0)
(0.020106 -1.47692e-05 0)
(0.0201093 -1.576e-05 0)
(0.0201128 -1.68491e-05 0)
(0.0201166 -1.80432e-05 0)
(0.0201206 -1.935e-05 0)
(0.0201249 -2.07774e-05 0)
(0.0201296 -2.23346e-05 0)
(0.0201346 -2.40312e-05 0)
(0.0201399 -2.58768e-05 0)
(0.0201457 -2.78843e-05 0)
(0.020152 -3.0067e-05 0)
(0.0201587 -3.24391e-05 0)
(0.020166 -3.5015e-05 0)
(0.0201738 -3.78109e-05 0)
(0.0201823 -4.08448e-05 0)
(0.0201914 -4.41361e-05 0)
(0.0202013 -4.77066e-05 0)
(0.020212 -5.1579e-05 0)
(0.0202235 -5.57786e-05 0)
(0.020236 -6.0333e-05 0)
(0.0202495 -6.52704e-05 0)
(0.0202641 -7.06237e-05 0)
(0.0202799 -7.64286e-05 0)
(0.020297 -8.27242e-05 0)
(0.0203155 -8.9552e-05 0)
(0.0203355 -9.69578e-05 0)
(0.0203572 -0.00010499 0)
(0.0203807 -0.000113704 0)
(0.0204061 -0.000123159 0)
(0.0204337 -0.00013342 0)
(0.0204635 -0.000144557 0)
(0.0204958 -0.00015665 0)
(0.0205308 -0.000169781 0)
(0.0205687 -0.000184044 0)
(0.0206098 -0.000199544 0)
(0.0206543 -0.000216391 0)
(0.0207026 -0.00023471 0)
(0.020755 -0.000254636 0)
(0.0208118 -0.00027632 0)
(0.0208734 -0.000299929 0)
(0.0209402 -0.000325647 0)
(0.0210127 -0.000353677 0)
(0.0210915 -0.000384243 0)
(0.021177 -0.000417598 0)
(0.0212698 -0.00045402 0)
(0.0213707 -0.000493823 0)
(0.0214804 -0.000537355 0)
(0.0215996 -0.00058501 0)
(0.0217293 -0.000637225 0)
(0.0218704 -0.000694497 0)
(0.0220241 -0.000757384 0)
(0.0221914 -0.000826521 0)
(0.0223739 -0.000902627 0)
(0.0225728 -0.000986523 0)
(0.02279 -0.00107915 0)
(0.0230271 -0.00118158 0)
(0.0232862 -0.00129506 0)
(0.0235697 -0.00142101 0)
(0.02388 -0.00156112 0)
(0.02422 -0.00171731 0)
(0.024593 -0.00189186 0)
(0.0250026 -0.00208746 0)
(0.0254528 -0.00230726 0)
(0.0259485 -0.00255503 0)
(0.0264949 -0.00283529 0)
(0.027098 -0.00315344 0)
(0.0277647 -0.00351607 0)
(0.0285029 -0.00393117 0)
(0.0293217 -0.00440856 0)
(0.0302315 -0.0049604 0)
(0.031244 -0.00560182 0)
(0.0323729 -0.00635184 0)
(0.0336336 -0.00723458 0)
(0.0350438 -0.00828085 0)
(0.036623 -0.00953045 0)
(0.0383927 -0.0110352 0)
(0.0403755 -0.0128634 0)
(0.0425938 -0.0151057 0)
(0.0450663 -0.0178839 0)
(0.0478022 -0.0213636 0)
(0.0507891 -0.0257706 0)
(0.0539734 -0.031421 0)
(0.0572126 -0.0387442 0)
(0.0602197 -0.0483989 0)
(0.0623401 -0.0611445 0)
(0.0619753 -0.0789441 0)
(0.0594736 -0.102576 0)
(0.0175607 -0.143634 0)
(-0.00690609 -0.0387022 0)
(0.00231081 -0.0151721 0)
(0.0156909 0.00875054 0)
(0.023076 0.0289718 0)
(0.0262071 0.0415216 0)
(0.0264583 0.0456907 0)
(0.0256689 0.0441544 0)
(0.0252104 0.0382973 0)
(0.0255295 0.0309149 0)
(0.0257143 0.0243977 0)
(0.0254132 0.0192849 0)
(0.0248192 0.015384 0)
(0.0241141 0.0123862 0)
(0.0233924 0.0100471 0)
(0.0227046 0.0081963 0)
(0.0220758 0.00671378 0)
(0.0215163 0.00551395 0)
(0.0210282 0.00453439 0)
(0.0206091 0.00372875 0)
(0.0202542 0.00306209 0)
(0.0199576 0.00250767 0)
(0.0197133 0.00204481 0)
(0.019515 0.00165725 0)
(0.0193571 0.00133217 0)
(0.0192342 0.00105918 0)
(0.0191413 0.000829983 0)
(0.0190741 0.000637691 0)
(0.0190287 0.000476682 0)
(0.0190016 0.000342209 0)
(0.0189897 0.00023035 0)
(0.0189904 0.000137753 0)
(0.0190014 6.15761e-05 0)
(0.0190207 -6.09248e-07 0)
(0.0190466 -5.08678e-05 0)
(0.0190775 -9.10563e-05 0)
(0.0191122 -0.000122684 0)
(0.0191497 -0.000147058 0)
(0.0191891 -0.00016533 0)
(0.0192296 -0.000178466 0)
(0.0192705 -0.000187305 0)
(0.0193115 -0.000192582 0)
(0.019352 -0.000194929 0)
(0.0193918 -0.000194883 0)
(0.0194307 -0.000192911 0)
(0.0194683 -0.000189403 0)
(0.0195046 -0.000184685 0)
(0.0195394 -0.000179041 0)
(0.0195727 -0.00017271 0)
(0.0196045 -0.000165891 0)
(0.0196347 -0.000158746 0)
(0.0196634 -0.000151411 0)
(0.0196905 -0.000143999 0)
(0.0197161 -0.000136602 0)
(0.0197402 -0.000129292 0)
(0.0197629 -0.000122125 0)
(0.0197842 -0.000115146 0)
(0.0198043 -0.000108391 0)
(0.019823 -0.000101884 0)
(0.0198406 -9.56447e-05 0)
(0.019857 -8.96845e-05 0)
(0.0198724 -8.40095e-05 0)
(0.0198867 -7.86222e-05 0)
(0.0199001 -7.35196e-05 0)
(0.0199126 -6.86955e-05 0)
(0.0199242 -6.41449e-05 0)
(0.019935 -5.98629e-05 0)
(0.0199451 -5.58416e-05 0)
(0.0199546 -5.207e-05 0)
(0.0199633 -4.85384e-05 0)
(0.0199715 -4.52372e-05 0)
(0.0199791 -4.21562e-05 0)
(0.0199861 -3.92828e-05 0)
(0.0199927 -3.66053e-05 0)
(0.0199988 -3.4113e-05 0)
(0.0200045 -3.17971e-05 0)
(0.0200098 -2.96491e-05 0)
(0.0200148 -2.7658e-05 0)
(0.0200194 -2.58144e-05 0)
(0.0200237 -2.41106e-05 0)
(0.0200277 -2.25387e-05 0)
(0.0200315 -2.10923e-05 0)
(0.020035 -1.97628e-05 0)
(0.0200383 -1.85435e-05 0)
(0.0200414 -1.74283e-05 0)
(0.0200443 -1.64125e-05 0)
(0.0200471 -1.5491e-05 0)
(0.0200497 -1.46579e-05 0)
(0.0200521 -1.39097e-05 0)
(0.0200545 -1.32411e-05 0)
(0.0200567 -1.26494e-05 0)
(0.0200588 -1.21323e-05 0)
(0.0200609 -1.16866e-05 0)
(0.0200628 -1.13087e-05 0)
(0.0200648 -1.09974e-05 0)
(0.0200666 -1.07513e-05 0)
(0.0200685 -1.05697e-05 0)
(0.0200703 -1.04521e-05 0)
(0.0200721 -1.0397e-05 0)
(0.0200738 -1.04039e-05 0)
(0.0200756 -1.04727e-05 0)
(0.0200775 -1.06053e-05 0)
(0.0200793 -1.08026e-05 0)
(0.0200812 -1.10662e-05 0)
(0.0200831 -1.13973e-05 0)
(0.0200851 -1.17971e-05 0)
(0.0200872 -1.22687e-05 0)
(0.0200893 -1.28155e-05 0)
(0.0200916 -1.34414e-05 0)
(0.020094 -1.4151e-05 0)
(0.0200965 -1.4948e-05 0)
(0.0200991 -1.58371e-05 0)
(0.0201019 -1.68237e-05 0)
(0.0201049 -1.7914e-05 0)
(0.0201081 -1.91154e-05 0)
(0.0201115 -2.04359e-05 0)