/*--------------------------------*- C++ -*----------------------------------*\
  =========                 |
  \\      /  F ield         | OpenFOAM: The Open Source CFD Toolbox
   \\    /   O peration     | Website:  https://openfoam.org
    \\  /    A nd           | Version:  dev
     \\/     M anipulation  |
\*---------------------------------------------------------------------------*/
FoamFile
{
    version     2.0;
    format      ascii;
    class       surfaceScalarField;
    location    "2";
    object      phi;
}
// * * * * * * * * * * * * * * * * * * * * * * * * * * * * * * * * * * * * * //

dimensions      [1 0 -1 0 0 0 0];

internalField   nonuniform List<scalar> 
15760
(
2.51614e-05
0.00113346
5.44247e-05
0.00112935
0.000135697
0.00107733
0.00100644
0.000287861
8.5295e-05
0.00104817
0.000185073
0.00102957
0.000297781
0.000964628
0.000867107
0.000437115
0.000124906
0.00092326
0.000253039
0.000901443
0.000387069
0.0008306
0.000713189
0.000540989
0.00013536
0.0007879
0.000265126
0.000771677
0.000396434
0.000699292
0.000586508
0.000523116
0.000119648
0.000668251
0.000233249
0.000658075
0.000339077
0.000593464
0.000501602
0.000423982
9.68271e-05
0.000571424
0.000188394
0.000566508
0.000265485
0.000516373
0.00044905
0.000318037
7.33076e-05
0.000498116
0.000143532
0.000496283
0.000200105
0.000459801
0.000411286
0.000237869
5.50907e-05
0.000443025
0.000108499
0.000442875
0.000151701
0.000416599
0.00038104
0.000181947
4.23496e-05
0.000400676
8.33848e-05
0.00040184
0.000117242
0.000382742
0.000356366
0.000141916
3.30576e-05
0.000367618
6.49992e-05
0.000369898
9.19039e-05
0.000355837
0.000336059
0.000112211
2.60628e-05
0.000341555
5.12324e-05
0.000344728
7.28454e-05
0.000334224
0.000319195
8.97098e-05
2.07409e-05
0.000320814
4.08045e-05
0.000324665
5.83304e-05
0.000316698
0.000305122
7.24031e-05
1.66528e-05
0.000304161
3.28089e-05
0.000308509
4.71278e-05
0.000302379
0.000293349
5.89005e-05
1.34785e-05
0.000290683
2.65998e-05
0.000295388
3.83699e-05
0.000290609
0.000283484
4.82357e-05
1.09877e-05
0.000279695
2.17202e-05
0.000284655
3.14437e-05
0.000280886
0.000275204
3.97237e-05
9.01288e-06
0.000270682
1.78439e-05
0.000275824
2.59101e-05
0.000272819
0.000268246
3.28678e-05
7.4321e-06
0.00026325
1.47344e-05
0.000268522
2.14491e-05
0.000266105
0.000262393
2.73017e-05
6.15576e-06
0.000257094
1.22186e-05
0.000262459
1.7824e-05
0.000260499
0.000257466
2.27513e-05
5.11727e-06
0.000251977
1.01676e-05
0.000257409
1.48579e-05
0.000255809
0.000253315
1.9009e-05
4.2667e-06
0.00024771
8.48482e-06
0.00025319
1.24163e-05
0.000251877
0.000249816
1.59152e-05
3.56611e-06
0.000244144
7.09635e-06
0.00024966
1.03963e-05
0.000248578
0.000246866
1.33461e-05
2.98573e-06
0.000241159
5.94487e-06
0.000246701
8.71743e-06
0.000245805
0.000244379
1.12046e-05
2.50298e-06
0.000238656
4.98633e-06
0.000244218
7.31717e-06
0.000243474
0.000242283
9.41386e-06
2.10026e-06
0.000236555
4.18587e-06
0.000242132
6.1459e-06
0.000241514
0.000240516
7.91275e-06
1.76324e-06
0.000234792
3.51541e-06
0.00024038
5.16347e-06
0.000239866
0.000239028
6.65135e-06
1.48048e-06
0.000233312
2.95252e-06
0.000238908
4.33788e-06
0.000238481
0.000237776
5.58996e-06
1.24279e-06
0.000232069
2.47904e-06
0.000237672
3.64274e-06
0.000237317
0.000236723
4.69513e-06
1.04265e-06
0.000231026
2.08025e-06
0.000236634
3.05703e-06
0.00023634
0.00023584
3.94053e-06
8.74046e-07
0.000230152
1.74402e-06
0.000235764
2.56281e-06
0.000235521
0.000235099
3.30331e-06
7.31798e-07
0.00022942
1.46041e-06
0.000235036
2.14577e-06
0.000234836
0.00023448
2.76531e-06
6.11816e-07
0.000228808
1.22113e-06
0.000234426
1.79376e-06
0.000234263
0.000233963
2.3108e-06
5.10616e-07
0.000228298
1.01896e-06
0.000233918
1.49636e-06
0.000233786
0.000233532
1.9269e-06
4.25248e-07
0.000227873
8.48546e-07
0.000233495
1.24551e-06
0.000233389
0.000233175
1.60278e-06
3.53009e-07
0.00022752
7.04311e-07
0.000233143
1.03353e-06
0.00023306
0.000232879
1.32921e-06
2.92398e-07
0.000227227
5.83119e-07
0.000232853
8.55108e-07
0.000232788
0.000232636
1.09852e-06
2.41025e-07
0.000226986
4.80712e-07
0.000232613
7.04507e-07
0.000232564
0.000232436
9.0432e-07
1.98032e-07
0.000226788
3.94813e-07
0.000232416
5.77956e-07
0.000232381
0.000232273
7.40774e-07
1.61827e-07
0.000226626
3.22432e-07
0.000232255
4.71533e-07
0.000232232
0.000232142
6.03207e-07
1.31298e-07
0.000226495
2.61518e-07
0.000232125
3.82106e-07
0.000232111
0.000232036
4.88033e-07
1.05897e-07
0.000226389
2.10636e-07
0.00023202
3.07256e-07
0.000232015
0.000231951
3.9151e-07
8.45601e-08
0.000226304
1.68036e-07
0.000231937
2.44547e-07
0.000231938
0.000231885
3.10672e-07
6.66574e-08
0.000226238
1.32606e-07
0.000231871
1.92334e-07
0.000231878
0.000231834
2.43439e-07
5.18832e-08
0.000226186
1.03053e-07
0.00023182
1.49036e-07
0.000231832
0.000231796
1.87543e-07
3.96766e-08
0.000226146
7.82767e-08
0.000231781
1.13015e-07
0.000231798
0.000231768
1.41101e-07
2.95307e-08
0.000226117
5.79621e-08
0.000231753
8.32049e-08
0.000231772
0.000231748
1.02919e-07
2.10932e-08
0.000226096
4.14418e-08
0.000231733
5.86883e-08
0.000231755
0.000231735
7.16285e-08
1.4166e-08
0.000226081
2.77722e-08
0.000231719
3.85922e-08
0.000231744
0.000231728
4.58946e-08
8.59515e-09
0.000226073
1.65376e-08
0.000231711
2.22982e-08
0.000231739
0.000231725
2.49401e-08
4.12954e-09
0.000226069
7.49737e-09
0.000231708
9.18041e-09
0.000231737
0.000231726
8.13485e-09
5.10439e-10
0.000226068
2.46333e-10
0.000231708
-1.39569e-09
0.000231739
0.00023173
-5.28261e-09
-2.40636e-09
0.000226071
-5.52582e-09
0.000231711
-9.81836e-09
0.000231743
0.000231736
-1.59176e-08
-4.67116e-09
0.000226075
-1.00094e-08
0.000231716
-1.63637e-08
0.000231749
0.000231744
-2.41996e-08
-6.43496e-09
0.000226082
-1.34679e-08
0.000231723
-2.14017e-08
0.000231757
0.000231753
-3.05442e-08
-7.77385e-09
0.000226089
-1.61248e-08
0.000231732
-2.52204e-08
0.000231766
0.000231763
-3.53146e-08
-8.74754e-09
0.000226098
-1.8094e-08
0.000231741
-2.80067e-08
0.000231776
0.000231774
-3.87611e-08
-9.41174e-09
0.000226107
-1.94701e-08
0.000231751
-2.9938e-08
0.000231787
0.000231785
-4.11189e-08
-9.86445e-09
0.000226117
-2.03659e-08
0.000231762
-3.11782e-08
0.000231797
0.000231796
-4.25887e-08
-1.01408e-08
0.000226127
-2.08787e-08
0.000231772
-3.19009e-08
0.000231808
0.000231808
-4.33775e-08
-1.02645e-08
0.000226138
-2.11016e-08
0.000231783
-3.21939e-08
0.000231819
0.000231819
-4.36073e-08
-1.02619e-08
0.000226148
-2.10917e-08
0.000231794
-3.21142e-08
0.000231831
0.000231831
-4.33887e-08
-1.01636e-08
0.000226158
-2.08904e-08
0.000231805
-3.17505e-08
0.000231841
0.000231842
-4.28301e-08
-9.99584e-09
0.000226168
-2.0547e-08
0.000231815
-3.11887e-08
0.000231852
0.000231853
-4.20251e-08
-9.76527e-09
0.000226178
-2.01059e-08
0.000231826
-3.04931e-08
0.000231862
0.000231863
-4.10172e-08
-9.49423e-09
0.000226187
-1.95889e-08
0.000231836
-2.9688e-08
0.000231873
0.000231873
-3.98544e-08
-9.20454e-09
0.000226197
-1.90032e-08
0.000231846
-2.87984e-08
0.000231882
0.000231883
-3.86025e-08
-8.90291e-09
0.000226205
-1.83804e-08
0.000231855
-2.78683e-08
0.000231892
0.000231892
-3.73233e-08
-8.60252e-09
0.000226214
-1.77536e-08
0.000231864
-2.69299e-08
0.000231901
0.000231902
-3.6037e-08
-8.28902e-09
0.000226222
-1.7137e-08
0.000231873
-2.59943e-08
0.00023191
0.00023191
-3.47531e-08
-7.97717e-09
0.00022623
-1.65332e-08
0.000231882
-2.50497e-08
0.000231918
0.000231919
-3.34948e-08
-7.68152e-09
0.000226238
-1.59405e-08
0.00023189
-2.41453e-08
0.000231927
0.000231927
-3.22941e-08
-7.4064e-09
0.000226245
-1.53848e-08
0.000231898
-2.32979e-08
0.000231934
0.000231935
-3.11761e-08
-7.14305e-09
0.000226252
-1.48678e-08
0.000231905
-2.25245e-08
0.000231942
0.000231942
-3.01213e-08
-6.89737e-09
0.000226259
-1.43929e-08
0.000231913
-2.17984e-08
0.00023195
0.00023195
-2.91374e-08
-6.68806e-09
0.000226266
-1.39506e-08
0.00023192
-2.11261e-08
0.000231957
0.000231957
-2.82405e-08
-6.50971e-09
0.000226273
-1.35455e-08
0.000231927
-2.05354e-08
0.000231964
0.000231964
-2.74513e-08
-6.34547e-09
0.000226279
-1.32023e-08
0.000231934
-2.00336e-08
0.000231971
0.00023197
-2.6769e-08
-6.18424e-09
0.000226285
-1.29184e-08
0.000231941
-1.96102e-08
0.000231977
0.000231977
-2.61851e-08
-6.04961e-09
0.000226291
-1.26902e-08
0.000231948
-1.92488e-08
0.000231984
0.000231984
-2.56972e-08
-5.95811e-09
0.000226297
-1.25105e-08
0.000231954
-1.89701e-08
0.00023199
0.00023199
-2.53287e-08
-5.91194e-09
0.000226303
-1.2391e-08
0.000231961
-1.87864e-08
0.000231997
0.000231996
-2.5095e-08
-5.88919e-09
0.000226309
-1.23288e-08
0.000231967
-1.87091e-08
0.000232003
0.000232002
-2.49776e-08
-5.87845e-09
0.000226315
-1.23363e-08
0.000231973
-1.87127e-08
0.000232009
0.000232009
-2.49782e-08
-5.90483e-09
0.000226321
-1.23963e-08
0.00023198
-1.88057e-08
0.000232016
0.000232015
-2.50987e-08
-5.97229e-09
0.000226327
-1.25255e-08
0.000231986
-1.89951e-08
0.000232022
0.000232021
-2.53518e-08
-6.08687e-09
0.000226333
-1.27281e-08
0.000231993
-1.92967e-08
0.000232029
0.000232028
-2.57598e-08
-6.22861e-09
0.000226339
-1.30034e-08
0.000232
-1.97169e-08
0.000232036
0.000232034
-2.63071e-08
-6.3927e-09
0.000226345
-1.33486e-08
0.000232007
-2.02435e-08
0.000232042
0.000232041
-2.69993e-08
-6.58874e-09
0.000226352
-1.37738e-08
0.000232014
-2.08696e-08
0.00023205
0.000232048
-2.78273e-08
-6.83945e-09
0.000226359
-1.42718e-08
0.000232021
-2.1614e-08
0.000232057
0.000232055
-2.88247e-08
-7.13364e-09
0.000226366
-1.4854e-08
0.000232029
-2.24976e-08
0.000232065
0.000232063
-2.99821e-08
-7.46144e-09
0.000226373
-1.55306e-08
0.000232037
-2.3502e-08
0.000232072
0.000232071
-3.13197e-08
-7.83001e-09
0.000226381
-1.62954e-08
0.000232046
-2.46417e-08
0.000232081
0.000232079
-3.28338e-08
-8.25613e-09
0.000226389
-1.71459e-08
0.000232055
-2.59286e-08
0.00023209
0.000232087
-3.45398e-08
-8.74417e-09
0.000226398
-1.81112e-08
0.000232064
-2.73695e-08
0.000232099
0.000232097
-3.64625e-08
-9.29166e-09
0.000226407
-1.91869e-08
0.000232074
-2.89911e-08
0.000232109
0.000232106
-3.86113e-08
-9.87877e-09
0.000226417
-2.03858e-08
0.000232084
-3.07935e-08
0.000232119
0.000232116
-4.09993e-08
-1.05171e-08
0.000226428
-2.17125e-08
0.000232096
-3.27752e-08
0.00023213
0.000232127
-4.36271e-08
-1.12246e-08
0.000226439
-2.31643e-08
0.000232108
-3.49528e-08
0.000232142
0.000232139
-4.65128e-08
-1.20197e-08
0.000226451
-2.47615e-08
0.00023212
-3.73363e-08
0.000232154
0.000232151
-4.96797e-08
-1.28976e-08
0.000226464
-2.65101e-08
0.000232134
-3.99572e-08
0.000232168
0.000232164
-5.31519e-08
-1.38569e-08
0.000226478
-2.84196e-08
0.000232148
-4.28257e-08
0.000232182
0.000232178
-5.69554e-08
-1.48795e-08
0.000226492
-3.05129e-08
0.000232164
-4.59565e-08
0.000232198
0.000232194
-6.11063e-08
-1.59914e-08
0.000226508
-3.27904e-08
0.000232181
-4.93697e-08
0.000232214
0.00023221
-6.56411e-08
-1.72195e-08
0.000226526
-3.52712e-08
0.000232199
-5.30844e-08
0.000232232
0.000232227
-7.05747e-08
-1.85727e-08
0.000226544
-3.79759e-08
0.000232218
-5.7139e-08
0.000232251
0.000232246
-7.59471e-08
-2.00527e-08
0.000226564
-4.09175e-08
0.000232239
-6.15421e-08
0.000232272
0.000232266
-8.17881e-08
-2.16379e-08
0.000226586
-4.41124e-08
0.000232262
-6.63321e-08
0.000232294
0.000232288
-8.81245e-08
-2.33415e-08
0.000226609
-4.75745e-08
0.000232286
-7.15203e-08
0.000232318
0.000232312
-9.50168e-08
-2.51847e-08
0.000226634
-5.13345e-08
0.000232312
-7.71539e-08
0.000232344
0.000232337
-1.02495e-07
-2.72081e-08
0.000226662
-5.54149e-08
0.00023234
-8.32758e-08
0.000232372
0.000232364
-1.10618e-07
-2.94215e-08
0.000226691
-5.98593e-08
0.000232371
-8.9923e-08
0.000232402
0.000232394
-1.19432e-07
-3.18297e-08
0.000226723
-6.46707e-08
0.000232403
-9.71369e-08
0.000232434
0.000232426
-1.2899e-07
-3.44152e-08
0.000226757
-6.98857e-08
0.000232439
-1.04943e-07
0.000232469
0.00023246
-1.39335e-07
-3.71921e-08
0.000226794
-7.55305e-08
0.000232477
-1.13394e-07
0.000232507
0.000232497
-1.50541e-07
-4.01944e-08
0.000226835
-8.16312e-08
0.000232519
-1.22538e-07
0.000232548
0.000232537
-1.62672e-07
-4.34682e-08
0.000226878
-8.82451e-08
0.000232564
-1.32449e-07
0.000232592
0.000232581
-1.75825e-07
-4.70401e-08
0.000226925
-9.54225e-08
0.000232612
-1.43197e-07
0.00023264
0.000232628
-1.90085e-07
-5.09202e-08
0.000226976
-1.03208e-07
0.000232664
-1.54855e-07
0.000232692
0.000232678
-2.0554e-07
-5.5123e-08
0.000227031
-1.1164e-07
0.000232721
-1.67492e-07
0.000232748
0.000232733
-2.22292e-07
-5.96473e-08
0.000227091
-1.20768e-07
0.000232782
-1.8115e-07
0.000232808
0.000232792
-2.40393e-07
-6.4512e-08
0.000227155
-1.30627e-07
0.000232848
-1.95924e-07
0.000232873
0.000232856
-2.5999e-07
-6.97903e-08
0.000227225
-1.41308e-07
0.000232919
-2.11928e-07
0.000232944
0.000232926
-2.81217e-07
-7.55331e-08
0.000227301
-1.52884e-07
0.000232997
-2.29267e-07
0.00023302
0.000233001
-3.04215e-07
-8.17594e-08
0.000227382
-1.65419e-07
0.00023308
-2.48044e-07
0.000233103
0.000233082
-3.29121e-07
-8.8503e-08
0.000227471
-1.78997e-07
0.000233171
-2.68393e-07
0.000233192
0.000233169
-3.56102e-07
-9.57972e-08
0.000227567
-1.93714e-07
0.000233269
-2.90433e-07
0.000233289
0.000233264
-3.85317e-07
-1.03683e-07
0.00022767
-2.09651e-07
0.000233375
-3.14284e-07
0.000233394
0.000233367
-4.16933e-07
-1.12219e-07
0.000227782
-2.26887e-07
0.000233489
-3.40099e-07
0.000233507
0.000233478
-4.51161e-07
-1.21471e-07
0.000227904
-2.45555e-07
0.000233614
-3.68053e-07
0.000233629
0.000233598
-4.88235e-07
-1.31516e-07
0.000228035
-2.65778e-07
0.000233748
-3.98342e-07
0.000233762
0.000233728
-5.28405e-07
-1.42406e-07
0.000228178
-2.87696e-07
0.000233893
-4.31175e-07
0.000233905
0.000233869
-5.71928e-07
-1.54199e-07
0.000228332
-3.11448e-07
0.00023405
-4.66745e-07
0.000234061
0.000234021
-6.19084e-07
-1.66953e-07
0.000228499
-3.37172e-07
0.000234221
-5.05276e-07
0.000234229
0.000234186
-6.70146e-07
-1.80755e-07
0.00022868
-3.65039e-07
0.000234405
-5.46992e-07
0.000234411
0.000234365
-7.25453e-07
-1.95705e-07
0.000228875
-3.95218e-07
0.000234604
-5.92196e-07
0.000234608
0.000234558
-7.85391e-07
-2.11922e-07
0.000229087
-4.27939e-07
0.00023482
-6.41204e-07
0.000234821
0.000234767
-8.50362e-07
-2.2953e-07
0.000229317
-4.63429e-07
0.000235054
-6.94345e-07
0.000235052
0.000234994
-9.20805e-07
-2.48634e-07
0.000229565
-5.01914e-07
0.000235308
-7.51963e-07
0.000235302
0.000235239
-9.97162e-07
-2.69333e-07
0.000229835
-5.4364e-07
0.000235582
-8.14428e-07
0.000235573
0.000235504
-1.07994e-06
-2.91772e-07
0.000230127
-5.88878e-07
0.000235879
-8.82152e-07
0.000235866
0.000235792
-1.16969e-06
-3.16101e-07
0.000230443
-6.37944e-07
0.000236201
-9.55612e-07
0.000236184
0.000236103
-1.26704e-06
-3.42509e-07
0.000230785
-6.91188e-07
0.000236549
-1.03532e-06
0.000236528
0.000236441
-1.37268e-06
-3.71186e-07
0.000231156
-7.48983e-07
0.000236927
-1.12184e-06
0.000236901
0.000236806
-1.48732e-06
-4.02323e-07
0.000231559
-8.11725e-07
0.000237337
-1.21576e-06
0.000237305
0.000237202
-1.61175e-06
-4.36121e-07
0.000231995
-8.79855e-07
0.00023778
-1.31772e-06
0.000237743
0.000237631
-1.74682e-06
-4.72827e-07
0.000232468
-9.53847e-07
0.000238261
-1.42847e-06
0.000238217
0.000238096
-1.89352e-06
-5.12719e-07
0.00023298
-1.03425e-06
0.000238783
-1.5488e-06
0.000238732
0.0002386
-2.05292e-06
-5.56082e-07
0.000233536
-1.12166e-06
0.000239349
-1.6796e-06
0.00023929
0.000239147
-2.22615e-06
-6.03238e-07
0.00023414
-1.21671e-06
0.000239962
-1.82183e-06
0.000239895
0.000239739
-2.41447e-06
-6.54535e-07
0.000234794
-1.32011e-06
0.000240628
-1.97651e-06
0.000240551
0.000240382
-2.61927e-06
-7.10371e-07
0.000235504
-1.43263e-06
0.00024135
-2.14484e-06
0.000241263
0.000241079
-2.8421e-06
-7.71193e-07
0.000236276
-1.55516e-06
0.000242134
-2.32811e-06
0.000242036
0.000241836
-3.08471e-06
-8.3749e-07
0.000237113
-1.68867e-06
0.000242985
-2.5278e-06
0.000242876
0.000242657
-3.34898e-06
-9.09777e-07
0.000238023
-1.83423e-06
0.000243909
-2.74547e-06
0.000243787
0.000243549
-3.63699e-06
-9.88626e-07
0.000239011
-1.99302e-06
0.000244914
-2.98287e-06
0.000244777
0.000244517
-3.95103e-06
-1.07466e-06
0.000240086
-2.16631e-06
0.000246005
-3.24193e-06
0.000245852
0.000245569
-4.29368e-06
-1.16865e-06
0.000241255
-2.35561e-06
0.000247192
-3.52488e-06
0.000247022
0.000246712
-4.66781e-06
-1.27142e-06
0.000242526
-2.56255e-06
0.000248484
-3.83414e-06
0.000248293
0.000247954
-5.07666e-06
-1.38389e-06
0.00024391
-2.78901e-06
0.000249889
-4.17251e-06
0.000249677
0.000249305
-5.52385e-06
-1.50713e-06
0.000245417
-3.03707e-06
0.000251419
-4.54304e-06
0.000251183
0.000250776
-6.01338e-06
-1.64228e-06
0.000247059
-3.30905e-06
0.000253085
-4.94917e-06
0.000252823
0.000252376
-6.54975e-06
-1.79065e-06
0.00024885
-3.60753e-06
0.000254902
-5.39477e-06
0.00025461
0.00025412
-7.13805e-06
-1.9537e-06
0.000250804
-3.93551e-06
0.000256884
-5.88427e-06
0.000256559
0.000256019
-7.78408e-06
-2.13315e-06
0.000252937
-4.29639e-06
0.000259047
-6.42272e-06
0.000258685
0.000258091
-8.49437e-06
-2.33094e-06
0.000255268
-4.69405e-06
0.00026141
-7.01581e-06
0.000261007
0.000260352
-9.27637e-06
-2.54927e-06
0.000257817
-5.13287e-06
0.000263994
-7.67002e-06
0.000263544
0.00026282
-1.01385e-05
-2.79064e-06
0.000260608
-5.61789e-06
0.000266821
-8.39279e-06
0.000266319
0.000265518
-1.10904e-05
-3.058e-06
0.000263666
-6.15495e-06
0.000269918
-9.19272e-06
0.000269357
0.000268468
-1.21432e-05
-3.35477e-06
0.00026702
-6.75081e-06
0.000273314
-1.00798e-05
0.000272686
0.000271698
-1.33099e-05
-3.68488e-06
0.000270705
-7.41331e-06
0.000277043
-1.10655e-05
0.000276338
0.000275238
-1.46053e-05
-4.0529e-06
0.000274758
-8.15156e-06
0.000281141
-1.21631e-05
0.000280349
0.000279122
-1.60465e-05
-4.4642e-06
0.000279222
-8.97622e-06
0.000285653
-1.33883e-05
0.000284761
0.000283387
-1.76537e-05
-4.92515e-06
0.000284148
-9.89994e-06
0.000290628
-1.47596e-05
0.000289621
0.000288078
-1.94507e-05
-5.44339e-06
0.000289591
-1.09377e-05
0.000296122
-1.62988e-05
0.000294982
0.000293244
-2.14652e-05
-6.02791e-06
0.000295619
-1.21073e-05
0.000302202
-1.80318e-05
0.000300907
0.000298943
-2.37302e-05
-6.68951e-06
0.000302308
-1.34301e-05
0.000308942
-1.99895e-05
0.000307466
0.000305238
-2.62852e-05
-7.44129e-06
0.00030975
-1.49319e-05
0.000316433
-2.22094e-05
0.000314743
0.000312206
-2.91773e-05
-8.29934e-06
0.000318049
-1.66442e-05
0.000324778
-2.47366e-05
0.000322836
0.000319933
-3.24635e-05
-9.28334e-06
0.000327332
-1.86054e-05
0.0003341
-2.76264e-05
0.000331857
0.00032852
-3.62129e-05
-1.04175e-05
0.00033775
-2.08629e-05
0.000344545
-3.09466e-05
0.00034194
0.000338083
-4.05101e-05
-1.17323e-05
0.000349482
-2.3476e-05
0.000356289
-3.47815e-05
0.000353246
0.000348761
-4.54594e-05
-1.32662e-05
0.000362748
-2.65192e-05
0.000369542
-3.92365e-05
0.000365963
0.000360715
-5.11902e-05
-1.50683e-05
0.000377817
-3.00871e-05
0.000384561
-4.44447e-05
0.000380321
0.000374134
-5.78647e-05
-1.72018e-05
0.000395018
-3.43013e-05
0.00040166
-5.0576e-05
0.000396596
0.000389246
-6.56879e-05
-1.97495e-05
0.000414768
-3.93199e-05
0.000421231
-5.78494e-05
0.000415125
0.000406318
-7.49215e-05
-2.28209e-05
0.000437589
-4.5351e-05
0.000443761
-6.65506e-05
0.000436325
0.00042567
-8.59023e-05
-2.65633e-05
0.000464152
-5.26724e-05
0.00046987
-7.70569e-05
0.000460709
0.000447682
-9.9069e-05
-3.11777e-05
0.00049533
-6.16601e-05
0.000500352
-8.98733e-05
0.000488922
0.000472808
-0.000114999
-3.69426e-05
0.000532272
-7.28313e-05
0.000536241
-0.000105685
0.000521776
0.000501584
-0.000134461
-4.42515e-05
0.000576524
-8.69094e-05
0.000578899
-0.000125435
0.000560302
0.000534641
-0.000158492
-5.36697e-05
0.000630193
-0.000104925
0.000630154
-0.000150446
0.000605822
0.000572698
-0.000188504
-6.602e-05
0.000696213
-0.000128364
0.000692499
-0.000182595
0.000660052
0.000616557
-0.000226453
-8.25463e-05
0.00077876
-0.000159469
0.000769421
-0.000224626
0.000725209
0.000667011
-0.00027508
-0.000104934
0.000883694
-0.000201342
0.00086583
-0.000280524
0.000804391
0.000724799
-0.000338312
-0.000136603
0.0010203
-0.000259876
0.000989102
-0.000356613
0.000901128
0.00078986
-0.000421674
-0.000178853
0.00119915
-0.000339674
0.00114992
-0.000462416
0.00102387
0.000862062
-0.000534619
-0.000242072
0.00144122
-0.000457082
0.00136493
-0.000611371
0.00117816
0.000937164
-0.000686472
-0.000342681
0.0017839
-0.000631387
0.00165364
-0.000841731
0.0013885
0.00101358
-0.00091815
-0.000390886
0.00217479
-0.000790179
0.00205293
-0.00112875
0.00172708
0.00111204
-0.00122721
-0.000760772
-0.0013903
-0.00176607
-0.00193348
0.00031815
-3.02886e-05
0.000347949
0.000407318
0.00034586
0.000543078
0.000356455
0.000512522
0.000365148
0.000415289
0.000362436
0.000320749
0.000351858
0.000248448
0.000338658
0.000195147
0.000325309
0.000155266
0.000312743
0.000124777
0.000301349
0.000101104
0.000291252
8.25e-05
0.00028243
6.77227e-05
0.000274791
5.58745e-05
0.000268217
4.62975e-05
0.000262584
3.85011e-05
0.000257771
3.21144e-05
0.000253669
2.68535e-05
0.000250179
2.24992e-05
0.000247214
1.88801e-05
0.000244699
1.58613e-05
0.000242568
1.33357e-05
0.000240765
1.1217e-05
0.000239241
9.43653e-06
0.000237955
7.93704e-06
0.000236872
6.67316e-06
0.000235961
5.6061e-06
0.000235196
4.70517e-06
0.000234556
3.94368e-06
0.000234021
3.30033e-06
0.000233575
2.75655e-06
0.000233205
2.29709e-06
0.000232899
1.90901e-06
0.000232646
1.58169e-06
0.000232439
1.30533e-06
0.000232271
1.07286e-06
0.000232134
8.77255e-07
0.000232025
7.12814e-07
0.000231938
5.7501e-07
0.00023187
4.59545e-07
0.000231817
3.63154e-07
0.000231778
2.83093e-07
0.000231749
2.16531e-07
0.000231729
1.61272e-07
0.000231716
1.15791e-07
0.000231709
7.8546e-08
0.000231706
4.81678e-08
0.000231708
2.35677e-08
0.000231712
3.79471e-09
0.000231719
-1.1983e-08
0.000231727
-2.44138e-08
0.000231737
-3.40305e-08
0.000231748
-4.13219e-08
0.000231759
-4.67241e-08
0.000231771
-5.0579e-08
0.000231783
-5.31668e-08
0.000231795
-5.46948e-08
0.000231807
-5.53904e-08
0.000231819
-5.54376e-08
0.000231831
-5.49761e-08
0.000231842
-5.41217e-08
0.000231853
-5.297e-08
0.000231864
-5.16109e-08
0.000231874
-5.01045e-08
0.000231884
-4.85027e-08
0.000231893
-4.68404e-08
0.000231902
-4.51685e-08
0.000231911
-4.35057e-08
0.00023192
-4.18962e-08
0.000231928
-4.03621e-08
0.000231935
-3.89259e-08
0.000231943
-3.7584e-08
0.00023195
-3.63511e-08
0.000231957
-3.523e-08
0.000231964
-3.42386e-08
0.00023197
-3.33752e-08
0.000231977
-3.26293e-08
0.000231983
-3.20233e-08
0.000231989
-3.1565e-08
0.000231996
-3.12618e-08
0.000232002
-3.11093e-08
0.000232008
-3.11017e-08
0.000232014
-3.12452e-08
0.00023202
-3.15695e-08
0.000232027
-3.20642e-08
0.000232033
-3.27418e-08
0.00023204
-3.35871e-08
0.000232046
-3.46192e-08
0.000232053
-3.58464e-08
0.000232061
-3.72916e-08
0.000232068
-3.89455e-08
0.000232076
-4.0827e-08
0.000232085
-4.29422e-08
0.000232094
-4.53226e-08
0.000232103
-4.79953e-08
0.000232113
-5.0949e-08
0.000232123
-5.421e-08
0.000232135
-5.7785e-08
0.000232147
-6.17055e-08
0.00023216
-6.60073e-08
0.000232173
-7.07262e-08
0.000232188
-7.58812e-08
0.000232204
-8.14986e-08
0.000232221
-8.7619e-08
0.000232239
-9.42714e-08
0.000232259
-1.01509e-07
0.00023228
-1.09377e-07
0.000232303
-1.17917e-07
0.000232328
-1.27198e-07
0.000232355
-1.37269e-07
0.000232383
-1.48197e-07
0.000232414
-1.60035e-07
0.000232448
-1.72856e-07
0.000232484
-1.86747e-07
0.000232523
-2.01795e-07
0.000232566
-2.18114e-07
0.000232611
-2.35793e-07
0.000232661
-2.54949e-07
0.000232714
-2.75696e-07
0.000232772
-2.98131e-07
0.000232834
-3.22429e-07
0.000232902
-3.48757e-07
0.000232975
-3.77263e-07
0.000233054
-4.08141e-07
0.000233139
-4.41575e-07
0.000233232
-4.77774e-07
0.000233332
-5.16955e-07
0.00023344
-5.59383e-07
0.000233557
-6.05335e-07
0.000233684
-6.55126e-07
0.000233821
-7.09068e-07
0.000233969
-7.67487e-07
0.00023413
-8.30757e-07
0.000234304
-8.99298e-07
0.000234492
-9.7357e-07
0.000234696
-1.05408e-06
0.000234916
-1.14134e-06
0.000235155
-1.23593e-06
0.000235413
-1.33846e-06
0.000235693
-1.44963e-06
0.000235997
-1.57022e-06
0.000236325
-1.70105e-06
0.000236681
-1.84301e-06
0.000237066
-1.99707e-06
0.000237483
-2.16431e-06
0.000237936
-2.34592e-06
0.000238426
-2.5432e-06
0.000238958
-2.75758e-06
0.000239534
-2.9906e-06
0.000240158
-3.24397e-06
0.000240836
-3.51962e-06
0.000241571
-3.81966e-06
0.000242368
-4.14643e-06
0.000243234
-4.50245e-06
0.000244173
-4.89054e-06
0.000245193
-5.31388e-06
0.000246302
-5.776e-06
0.000247506
-6.28085e-06
0.000248815
-6.83282e-06
0.000250238
-7.4368e-06
0.000251787
-8.09829e-06
0.000253472
-8.82353e-06
0.000255308
-9.61952e-06
0.000257308
-1.04942e-05
0.000259488
-1.14566e-05
0.000261866
-1.25168e-05
0.000264462
-1.36867e-05
0.000267299
-1.49796e-05
0.0002704
-1.6411e-05
0.000273793
-1.79986e-05
0.00027751
-1.97631e-05
0.000281585
-2.17286e-05
0.000286057
-2.3923e-05
0.000290971
-2.63795e-05
0.000296378
-2.91367e-05
0.000302334
-3.22411e-05
0.000308904
-3.57478e-05
0.000316164
-3.97228e-05
0.000324196
-4.42459e-05
0.0003331
-4.94139e-05
0.000342986
-5.53455e-05
0.000353983
-6.21863e-05
0.000366235
-7.01171e-05
0.000379911
-7.93638e-05
0.0003952
-9.02106e-05
0.000412315
-0.000103018
0.000431493
-0.000118247
0.000452986
-0.000136492
0.00047705
-0.000158525
0.000503915
-0.000185357
0.000533735
-0.000218324
0.000566477
-0.000259195
0.000601732
-0.000310335
0.000638334
-0.000374914
0.000673785
-0.000457125
0.000701947
-0.000562781
0.000713742
-0.000698266
0.000670122
-0.000874531
0.000532326
-0.00108941
-0.00140115
-7.23251e-05
4.20365e-05
-2.60619e-06
0.000337599
0.00010642
0.000434052
0.000200581
0.000418361
0.000258669
0.000357201
0.000286391
0.000293027
0.000296408
0.000238431
0.000297339
0.000194216
0.000293869
0.000158735
0.000288425
0.000130222
0.000282291
0.000107237
0.00027615
8.86412e-05
0.000270347
7.35259e-05
0.000265042
6.11794e-05
0.000260293
5.10467e-05
0.0002561
4.26934e-05
0.000252436
3.57786e-05
0.000249257
3.00325e-05
0.000246515
2.52417e-05
0.000244159
2.12354e-05
0.000242144
1.78764e-05
0.000240426
1.50541e-05
0.000238965
1.26782e-05
0.000237726
1.06754e-05
0.000236678
8.98479e-06
0.000235794
7.55685e-06
0.000235051
6.34947e-06
0.000234428
5.32862e-06
0.000233906
4.46502e-06
0.000233472
3.73467e-06
0.000233111
3.11718e-06
0.000232813
2.59514e-06
0.000232568
2.1542e-06
0.000232368
1.78211e-06
0.000232205
1.46838e-06
0.000232073
1.20434e-06
0.000231968
9.81994e-07
0.000231886
7.95446e-07
0.000231821
6.39411e-07
0.000231772
5.08693e-07
0.000231736
3.99498e-07
0.00023171
3.08775e-07
0.000231693
2.33641e-07
0.000231683
1.71605e-07
0.000231678
1.20555e-07
0.000231678
7.87342e-08
0.000231681
4.47151e-08
0.000231687
1.7274e-08
0.000231696
-4.70188e-09
0.000231706
-2.21131e-08
0.000231717
-3.57094e-08
0.00023173
-4.61515e-08
0.000231742
-5.40011e-08
0.000231755
-5.97192e-08
0.000231768
-6.36779e-08
0.000231781
-6.62137e-08
0.000231794
-6.75865e-08
0.000231807
-6.8077e-08
0.000231819
-6.78447e-08
0.000231831
-6.70169e-08
0.000231843
-6.57339e-08
0.000231854
-6.41426e-08
0.000231865
-6.23353e-08
0.000231875
-6.03827e-08
0.000231885
-5.83404e-08
0.000231894
-5.62764e-08
0.000231903
-5.42239e-08
0.000231912
-5.22034e-08
0.00023192
-5.02343e-08
0.000231928
-4.83537e-08
0.000231936
-4.65888e-08
0.000231944
-4.49527e-08
0.000231951
-4.34423e-08
0.000231957
-4.20749e-08
0.000231964
-4.08596e-08
0.000231971
-3.98113e-08
0.000231977
-3.89204e-08
0.000231983
-3.81908e-08
0.000231989
-3.76348e-08
0.000231995
-3.7266e-08
0.000232001
-3.70716e-08
0.000232007
-3.70534e-08
0.000232013
-3.72222e-08
0.000232019
-3.75942e-08
0.000232025
-3.8183e-08
0.000232031
-3.89712e-08
0.000232038
-3.99755e-08
0.000232044
-4.11972e-08
0.000232051
-4.26557e-08
0.000232058
-4.43662e-08
0.000232066
-4.63326e-08
0.000232073
-4.85574e-08
0.000232081
-5.10761e-08
0.00023209
-5.39086e-08
0.000232099
-5.70735e-08
0.000232109
-6.05851e-08
0.000232119
-6.4447e-08
0.00023213
-6.8687e-08
0.000232141
-7.33434e-08
0.000232154
-7.84538e-08
0.000232167
-8.40554e-08
0.000232182
-9.01823e-08
0.000232197
-9.68563e-08
0.000232213
-1.04118e-07
0.000232231
-1.12014e-07
0.00023225
-1.20604e-07
0.000232271
-1.29946e-07
0.000232293
-1.40095e-07
0.000232317
-1.51116e-07
0.000232343
-1.63067e-07
0.00023237
-1.7603e-07
0.000232401
-1.9008e-07
0.000232433
-2.053e-07
0.000232468
-2.21799e-07
0.000232506
-2.39671e-07
0.000232547
-2.5904e-07
0.000232591
-2.80022e-07
0.000232639
-3.02755e-07
0.000232691
-3.27386e-07
0.000232746
-3.54014e-07
0.000232807
-3.82856e-07
0.000232872
-4.14105e-07
0.000232943
-4.47951e-07
0.000233019
-4.84592e-07
0.000233102
-5.2427e-07
0.000233191
-5.67225e-07
0.000233288
-6.13725e-07
0.000233393
-6.64082e-07
0.000233506
-7.18626e-07
0.000233629
-7.77714e-07
0.000233761
-8.41713e-07
0.000233905
-9.11023e-07
0.00023406
-9.86088e-07
0.000234228
-1.06741e-06
0.00023441
-1.15554e-06
0.000234607
-1.25104e-06
0.000234821
-1.35455e-06
0.000235051
-1.46673e-06
0.000235301
-1.58832e-06
0.000235572
-1.72017e-06
0.000235865
-1.86316e-06
0.000236182
-2.01829e-06
0.000236526
-2.18659e-06
0.000236898
-2.3692e-06
0.000237301
-2.56741e-06
0.000237738
-2.78263e-06
0.000238211
-3.01639e-06
0.000238723
-3.27034e-06
0.000239279
-3.54633e-06
0.000239882
-3.84638e-06
0.000240535
-4.17275e-06
0.000241243
-4.52792e-06
0.000242011
-4.9146e-06
0.000242844
-5.33576e-06
0.000243749
-5.79474e-06
0.00024473
-6.29525e-06
0.000245795
-6.84141e-06
0.000246952
-7.43785e-06
0.000248209
-8.08967e-06
0.000249575
-8.80257e-06
0.00025106
-9.58297e-06
0.000252674
-1.04381e-05
0.000254431
-1.13761e-05
0.000256343
-1.24061e-05
0.000258425
-1.35386e-05
0.000260693
-1.47852e-05
0.000263166
-1.61595e-05
0.000265863
-1.7677e-05
0.000268807
-1.93551e-05
0.000272023
-2.12143e-05
0.000275538
-2.32779e-05
0.000279382
-2.55732e-05
0.000283591
-2.81318e-05
0.000288203
-3.09908e-05
0.00029326
-3.41937e-05
0.00029881
-3.77918e-05
0.000304908
-4.18459e-05
0.000311614
-4.64287e-05
0.000318995
-5.1627e-05
0.000327127
-5.75454e-05
0.000336092
-6.43105e-05
0.000345982
-7.20768e-05
0.000356898
-8.1033e-05
0.000368946
-9.14119e-05
0.000382237
-0.000103502
0.000396881
-0.000117662
0.000412974
-0.00013434
0.000430586
-0.000154103
0.000449724
-0.000177663
0.000470287
-0.00020592
0.000491978
-0.000240016
0.000514167
-0.000281384
0.000535649
-0.000331817
0.000554245
-0.00039351
0.000566178
-0.000469058
0.000564654
-0.000561258
0.000539292