/*--------------------------------*- C++ -*----------------------------------*\
  =========                 |
  \\      /  F ield         | OpenFOAM: The Open Source CFD Toolbox
   \\    /   O peration     | Website:  https://openfoam.org
    \\  /    A nd           | Version:  dev
     \\/     M anipulation  |
\*---------------------------------------------------------------------------*/
FoamFile
{
    version     2.0;
    format      ascii;
    class       volVectorField;
    location    "2";
    object      U;
}
// * * * * * * * * * * * * * * * * * * * * * * * * * * * * * * * * * * * * * //

dimensions      [0 1 -1 0 0 0 0];

internalField   nonuniform List<vector> 
8000
(
(0.099548 0.00107442 0)
(0.0998188 0.00353641 0)
(0.0987278 0.00839113 0)
(0.0991429 0.00681568 0)
(0.094789 0.00388606 0)
(0.0942229 0.0101763 0)
(0.0890446 0.0224302 0)
(0.0830331 0.0265632 0)
(0.0862362 0.00666293 0)
(0.0844808 0.0148458 0)
(0.0785912 0.0282278 0)
(0.0675996 0.03915 0)
(0.0751187 0.00789461 0)
(0.0729652 0.0162058 0)
(0.0659888 0.0285702 0)
(0.0548912 0.0406906 0)
(0.0616868 0.00694856 0)
(0.0603989 0.0144697 0)
(0.0543486 0.0247991 0)
(0.0453198 0.0342362 0)
(0.0525334 0.00534705 0)
(0.0520237 0.0118338 0)
(0.0471092 0.0199993 0)
(0.0403441 0.0260095 0)
(0.0457471 0.00383141 0)
(0.0454796 0.00910882 0)
(0.0417633 0.0152263 0)
(0.0368957 0.0193436 0)
(0.0403042 0.00273464 0)
(0.0402223 0.0069335 0)
(0.0375691 0.0115071 0)
(0.0340195 0.0146634 0)
(0.036175 0.00202767 0)
(0.0362223 0.00536314 0)
(0.0343078 0.00884514 0)
(0.0316904 0.0113563 0)
(0.0329966 0.00154456 0)
(0.0331476 0.00420118 0)
(0.0317445 0.00689796 0)
(0.0297915 0.00892395 0)
(0.0304928 0.00119566 0)
(0.0307303 0.00332183 0)
(0.0296889 0.00544091 0)
(0.0282126 0.00709428 0)
(0.0285034 0.000937944 0)
(0.0288085 0.00265061 0)
(0.0280238 0.00433764 0)
(0.026893 0.00569768 0)
(0.0269109 0.000744546 0)
(0.0272662 0.00213342 0)
(0.0266662 0.00349134 0)
(0.0257887 0.00461599 0)
(0.0256255 0.000597178 0)
(0.0260172 0.00173061 0)
(0.0255522 0.00283348 0)
(0.0248632 0.00376715 0)
(0.0245804 0.000483252 0)
(0.0249982 0.00141362 0)
(0.0246332 0.00231577 0)
(0.0240863 0.00309348 0)
(0.023725 0.000394029 0)
(0.0241614 0.00116161 0)
(0.0238719 0.00190392 0)
(0.0234334 0.00255351 0)
(0.0230211 0.000323342 0)
(0.0234708 0.00095936 0)
(0.0232388 0.00157311 0)
(0.0228843 0.00211694 0)
(0.022439 0.000266757 0)
(0.0228982 0.00079568 0)
(0.0227108 0.00130515 0)
(0.022422 0.00176127 0)
(0.0219558 0.000221026 0)
(0.0224218 0.000662225 0)
(0.0222693 0.0010865 0)
(0.0220325 0.00146963 0)
(0.0215533 0.000183791 0)
(0.0220243 0.000552709 0)
(0.0218995 0.000906944 0)
(0.0217042 0.00122911 0)
(0.0212173 0.000153289 0)
(0.0216919 0.000462333 0)
(0.0215891 0.000758686 0)
(0.0214274 0.0010298 0)
(0.0209361 0.000128121 0)
(0.0214134 0.000387368 0)
(0.0213285 0.000635672 0)
(0.021194 0.000863934 0)
(0.0207004 0.000107257 0)
(0.0211797 0.000324956 0)
(0.0211094 0.000533227 0)
(0.0209971 0.000725438 0)
(0.0205028 8.99101e-05 0)
(0.0209836 0.000272825 0)
(0.0209252 0.000447648 0)
(0.0208312 0.00060949 0)
(0.0203369 7.54317e-05 0)
(0.0208187 0.00022915 0)
(0.0207702 0.000375948 0)
(0.0206914 0.000512166 0)
(0.0201976 6.33014e-05 0)
(0.0206803 0.000192472 0)
(0.0206399 0.000315749 0)
(0.0205737 0.000430332 0)
(0.0200806 5.31162e-05 0)
(0.0205639 0.000161618 0)
(0.0205304 0.000265113 0)
(0.0204747 0.000361392 0)
(0.0199824 4.45473e-05 0)
(0.0204663 0.000135626 0)
(0.0204385 0.000222472 0)
(0.0203916 0.00030329 0)
(0.0199001 3.73357e-05 0)
(0.0203843 0.000113717 0)
(0.0203613 0.000186517 0)
(0.0203218 0.000254246 0)
(0.0198311 3.12535e-05 0)
(0.0203156 9.52256e-05 0)
(0.0202967 0.00015619 0)
(0.0202634 0.000212863 0)
(0.0197734 2.61346e-05 0)
(0.0202582 7.96269e-05 0)
(0.0202427 0.000130591 0)
(0.0202145 0.000177928 0)
(0.0197251 2.18202e-05 0)
(0.0202101 6.64578e-05 0)
(0.0201976 0.000108962 0)
(0.0201738 0.000148407 0)
(0.0196849 1.81604e-05 0)
(0.0201701 5.53452e-05 0)
(0.02016 9.07449e-05 0)
(0.02014 0.000123496 0)
(0.0196515 1.50748e-05 0)
(0.0201368 4.59375e-05 0)
(0.0201288 7.53167e-05 0)
(0.0201119 0.000102465 0)
(0.0196238 1.24757e-05 0)
(0.0201093 3.80445e-05 0)
(0.020103 6.2356e-05 0)
(0.0200888 8.47328e-05 0)
(0.0196009 1.02805e-05 0)
(0.0200865 3.13569e-05 0)
(0.0200817 5.14012e-05 0)
(0.0200698 6.97845e-05 0)
(0.019582 8.4653e-06 0)
(0.0200677 2.57573e-05 0)
(0.0200642 4.21952e-05 0)
(0.0200542 5.72191e-05 0)
(0.0195666 6.91804e-06 0)
(0.0200524 2.10417e-05 0)
(0.02005 3.44462e-05 0)
(0.0200415 4.66514e-05 0)
(0.019554 5.61261e-06 0)
(0.0200399 1.70624e-05 0)
(0.0200384 2.79303e-05 0)
(0.0200313 3.77723e-05 0)
(0.0195438 4.52634e-06 0)
(0.0200299 1.37475e-05 0)
(0.0200291 2.24946e-05 0)
(0.0200232 3.03266e-05 0)
(0.0195356 3.61574e-06 0)
(0.0200218 1.09646e-05 0)
(0.0200217 1.79346e-05 0)
(0.0200168 2.41144e-05 0)
(0.0195291 2.87246e-06 0)
(0.0200154 8.63946e-06 0)
(0.0200158 1.41175e-05 0)
(0.0200117 1.89596e-05 0)
(0.0195241 2.24769e-06 0)
(0.0200104 6.71831e-06 0)
(0.0200113 1.09489e-05 0)
(0.0200079 1.46518e-05 0)
(0.0195202 1.70044e-06 0)
(0.0200065 5.12126e-06 0)
(0.0200079 8.32294e-06 0)
(0.0200051 1.10487e-05 0)
(0.0195172 1.25894e-06 0)
(0.0200037 3.79519e-06 0)
(0.0200053 6.16176e-06 0)
(0.020003 8.09135e-06 0)
(0.019515 9.23171e-07 0)
(0.0200016 2.7007e-06 0)
(0.0200035 4.38331e-06 0)
(0.0200016 5.68026e-06 0)
(0.0195135 6.46509e-07 0)
(0.0200001 1.80465e-06 0)
(0.0200023 2.91227e-06 0)
(0.0200008 3.69793e-06 0)
(0.0195125 4.06249e-07 0)
(0.0199992 1.08082e-06 0)
(0.0200016 1.71427e-06 0)
(0.0200004 2.08188e-06 0)
(0.019512 2.06498e-07 0)
(0.0199987 4.94913e-07 0)
(0.0200013 7.56404e-07 0)
(0.0200003 7.83638e-07 0)
(0.0195118 4.74508e-08 0)
(0.0199986 1.79233e-08 0)
(0.0200013 -1.16348e-08 0)
(0.0200005 -2.59825e-07 0)
(0.0195119 -7.56673e-08 0)
(0.0199988 -3.60642e-07 0)
(0.0200016 -6.26988e-07 0)
(0.020001 -1.09195e-06 0)
(0.0195122 -1.63515e-07 0)
(0.0199991 -6.51681e-07 0)
(0.020002 -1.11021e-06 0)
(0.0200016 -1.7379e-06 0)
(0.0195127 -2.3172e-07 0)
(0.0199997 -8.77865e-07 0)
(0.0200026 -1.48493e-06 0)
(0.0200023 -2.23004e-06 0)
(0.0195133 -2.87408e-07 0)
(0.0200004 -1.05242e-06 0)
(0.0200034 -1.76969e-06 0)
(0.0200031 -2.60246e-06 0)
(0.019514 -3.31642e-07 0)
(0.0200011 -1.17996e-06 0)
(0.0200042 -1.97763e-06 0)
(0.020004 -2.87724e-06 0)
(0.0195148 -3.61594e-07 0)
(0.020002 -1.26736e-06 0)
(0.0200051 -2.12317e-06 0)
(0.020005 -3.06865e-06 0)
(0.0195157 -3.80661e-07 0)
(0.0200029 -1.32609e-06 0)
(0.020006 -2.21949e-06 0)
(0.020006 -3.18713e-06 0)
(0.0195165 -3.89659e-07 0)
(0.0200038 -1.36297e-06 0)
(0.0200069 -2.27604e-06 0)
(0.020007 -3.25012e-06 0)
(0.0195174 -3.92591e-07 0)
(0.0200047 -1.37984e-06 0)
(0.0200079 -2.29945e-06 0)
(0.020008 -3.27223e-06 0)
(0.0195183 -3.90857e-07 0)
(0.0200056 -1.3785e-06 0)
(0.0200089 -2.29663e-06 0)
(0.0200089 -3.26222e-06 0)
(0.0195192 -3.85172e-07 0)
(0.0200066 -1.36414e-06 0)
(0.0200098 -2.27432e-06 0)
(0.0200099 -3.22488e-06 0)
(0.01952 -3.7824e-07 0)
(0.0200075 -1.34304e-06 0)
(0.0200107 -2.23538e-06 0)
(0.0200109 -3.16624e-06 0)
(0.0195209 -3.71045e-07 0)
(0.0200084 -1.31751e-06 0)
(0.0200116 -2.18182e-06 0)
(0.0200118 -3.09447e-06 0)
(0.0195217 -3.62995e-07 0)
(0.0200093 -1.28613e-06 0)
(0.0200125 -2.11872e-06 0)
(0.0200127 -3.01427e-06 0)
(0.0195225 -3.50884e-07 0)
(0.0200101 -1.24937e-06 0)
(0.0200134 -2.05208e-06 0)
(0.0200135 -2.92531e-06 0)
(0.0195233 -3.35405e-07 0)
(0.020011 -1.2106e-06 0)
(0.0200142 -1.98461e-06 0)
(0.0200144 -2.8287e-06 0)
(0.0195241 -3.21507e-07 0)
(0.0200118 -1.17212e-06 0)
(0.020015 -1.9157e-06 0)
(0.0200152 -2.72951e-06 0)
(0.0195248 -3.09599e-07 0)
(0.0200126 -1.13217e-06 0)
(0.0200158 -1.84666e-06 0)
(0.0200159 -2.63348e-06 0)
(0.0195255 -2.97868e-07 0)
(0.0200133 -1.09085e-06 0)
(0.0200166 -1.78075e-06 0)
(0.0200167 -2.54028e-06 0)
(0.0195262 -2.85599e-07 0)
(0.020014 -1.05122e-06 0)
(0.0200173 -1.72027e-06 0)
(0.0200174 -2.44886e-06 0)
(0.0195268 -2.74879e-07 0)
(0.0200147 -1.01628e-06 0)
(0.020018 -1.6627e-06 0)
(0.0200181 -2.36062e-06 0)
(0.0195275 -2.65852e-07 0)
(0.0200154 -9.83515e-07 0)
(0.0200186 -1.60664e-06 0)
(0.0200188 -2.28025e-06 0)
(0.0195281 -2.55571e-07 0)
(0.0200161 -9.50577e-07 0)
(0.0200193 -1.55465e-06 0)
(0.0200194 -2.20929e-06 0)
(0.0195286 -2.43087e-07 0)
(0.0200167 -9.19205e-07 0)
(0.0200199 -1.50996e-06 0)
(0.02002 -2.14485e-06 0)
(0.0195292 -2.31667e-07 0)
(0.0200173 -8.93151e-07 0)
(0.0200205 -1.47133e-06 0)
(0.0200206 -2.0845e-06 0)
(0.0195298 -2.25183e-07 0)
(0.0200179 -8.73245e-07 0)
(0.0200211 -1.435e-06 0)
(0.0200212 -2.02991e-06 0)
(0.0195303 -2.22233e-07 0)
(0.0200185 -8.55253e-07 0)
(0.0200217 -1.40034e-06 0)
(0.0200218 -1.98527e-06 0)
(0.0195308 -2.18986e-07 0)
(0.0200191 -8.37536e-07 0)
(0.0200223 -1.37181e-06 0)
(0.0200223 -1.95126e-06 0)
(0.0195313 -2.14247e-07 0)
(0.0200197 -8.22656e-07 0)
(0.0200229 -1.35336e-06 0)
(0.0200229 -1.9262e-06 0)
(0.0195319 -2.11214e-07 0)
(0.0200202 -8.14782e-07 0)
(0.0200234 -1.34341e-06 0)
(0.0200234 -1.90804e-06 0)
(0.0195324 -2.11942e-07 0)
(0.0200208 -8.12632e-07 0)
(0.020024 -1.33827e-06 0)
(0.020024 -1.89781e-06 0)
(0.0195329 -2.14054e-07 0)
(0.0200213 -8.12997e-07 0)
(0.0200245 -1.33753e-06 0)
(0.0200245 -1.89793e-06 0)
(0.0195334 -2.15257e-07 0)
(0.0200219 -8.14509e-07 0)
(0.0200251 -1.34443e-06 0)
(0.0200251 -1.90928e-06 0)
(0.0195339 -2.15636e-07 0)
(0.0200225 -8.20277e-07 0)
(0.0200256 -1.36129e-06 0)
(0.0200256 -1.92983e-06 0)
(0.0195344 -2.18937e-07 0)
(0.020023 -8.33457e-07 0)
(0.0200262 -1.38613e-06 0)
(0.0200262 -1.9592e-06 0)
(0.0195349 -2.26554e-07 0)
(0.0200236 -8.5269e-07 0)
(0.0200268 -1.41619e-06 0)
(0.0200267 -1.99854e-06 0)
(0.0195355 -2.36557e-07 0)
(0.0200242 -8.75056e-07 0)
(0.0200273 -1.45161e-06 0)
(0.0200273 -2.05045e-06 0)
(0.019536 -2.46498e-07 0)
(0.0200248 -9.00435e-07 0)
(0.0200279 -1.49576e-06 0)
(0.0200279 -2.11462e-06 0)
(0.0195366 -2.57239e-07 0)
(0.0200254 -9.31282e-07 0)
(0.0200286 -1.55036e-06 0)
(0.0200285 -2.19098e-06 0)
(0.0195372 -2.70474e-07 0)
(0.0200261 -9.69279e-07 0)
(0.0200292 -1.61477e-06 0)
(0.0200291 -2.27841e-06 0)
(0.0195379 -2.86521e-07 0)
(0.0200268 -1.01353e-06 0)
(0.0200299 -1.68663e-06 0)
(0.0200298 -2.37818e-06 0)
(0.0195385 -3.03739e-07 0)
(0.0200275 -1.06184e-06 0)
(0.0200306 -1.76736e-06 0)
(0.0200305 -2.49306e-06 0)
(0.0195392 -3.20975e-07 0)
(0.0200282 -1.1146e-06 0)
(0.0200313 -1.86011e-06 0)
(0.0200312 -2.62454e-06 0)
(0.0195399 -3.39668e-07 0)
(0.020029 -1.17576e-06 0)
(0.0200321 -1.96702e-06 0)
(0.020032 -2.77157e-06 0)
(0.0195407 -3.62971e-07 0)
(0.0200298 -1.24718e-06 0)
(0.0200329 -2.08628e-06 0)
(0.0200328 -2.93342e-06 0)
(0.0195415 -3.91307e-07 0)
(0.0200307 -1.32751e-06 0)
(0.0200338 -2.21537e-06 0)
(0.0200336 -3.11122e-06 0)
(0.0195424 -4.22652e-07 0)
(0.0200317 -1.41414e-06 0)
(0.0200347 -2.35473e-06 0)
(0.0200346 -3.30782e-06 0)
(0.0195434 -4.54233e-07 0)
(0.0200327 -1.50586e-06 0)
(0.0200357 -2.50834e-06 0)
(0.0200355 -3.52666e-06 0)
(0.0195444 -4.86315e-07 0)
(0.0200337 -1.60613e-06 0)
(0.0200368 -2.68029e-06 0)
(0.0200366 -3.76826e-06 0)
(0.0195454 -5.21782e-07 0)
(0.0200349 -1.71839e-06 0)
(0.0200379 -2.87124e-06 0)
(0.0200377 -4.03234e-06 0)
(0.0195466 -5.63613e-07 0)
(0.0200361 -1.84409e-06 0)
(0.0200391 -3.07874e-06 0)
(0.0200388 -4.31909e-06 0)
(0.0195478 -6.1049e-07 0)
(0.0200374 -1.98112e-06 0)
(0.0200404 -3.30253e-06 0)
(0.0200401 -4.63128e-06 0)
(0.0195492 -6.60046e-07 0)
(0.0200388 -2.12744e-06 0)
(0.0200418 -3.54528e-06 0)
(0.0200415 -4.97397e-06 0)
(0.0195506 -7.10845e-07 0)
(0.0200403 -2.28471e-06 0)
(0.0200432 -3.81209e-06 0)
(0.0200429 -5.34974e-06 0)
(0.0195521 -7.64599e-07 0)
(0.0200419 -2.45713e-06 0)
(0.0200448 -4.107e-06 0)
(0.0200445 -5.76031e-06 0)
(0.0195538 -8.25154e-07 0)
(0.0200436 -2.64846e-06 0)
(0.0200465 -4.42873e-06 0)
(0.0200462 -6.20454e-06 0)
(0.0195556 -8.93865e-07 0)
(0.0200455 -2.85847e-06 0)
(0.0200484 -4.77594e-06 0)
(0.020048 -6.68388e-06 0)
(0.0195575 -9.69585e-07 0)
(0.0200475 -3.08503e-06 0)
(0.0200504 -5.14808e-06 0)
(0.0200499 -7.20271e-06 0)
(0.0195596 -1.04931e-06 0)
(0.0200497 -3.32709e-06 0)
(0.0200525 -5.55038e-06 0)
(0.020052 -7.76692e-06 0)
(0.0195619 -1.13267e-06 0)
(0.020052 -3.58736e-06 0)
(0.0200549 -5.98916e-06 0)
(0.0200543 -8.38246e-06 0)
(0.0195643 -1.22203e-06 0)
(0.0200546 -3.87152e-06 0)
(0.0200574 -6.46956e-06 0)
(0.0200568 -9.05213e-06 0)
(0.019567 -1.32184e-06 0)
(0.0200573 -4.1835e-06 0)
(0.02006 -6.99194e-06 0)
(0.0200594 -9.77799e-06 0)
(0.0195698 -1.43383e-06 0)
(0.0200602 -4.5246e-06 0)
(0.0200629 -7.55582e-06 0)
(0.0200622 -1.05616e-05 0)
(0.0195729 -1.55687e-06 0)
(0.0200634 -4.89348e-06 0)
(0.0200661 -8.16284e-06 0)
(0.0200653 -1.14088e-05 0)
(0.0195762 -1.68796e-06 0)
(0.0200668 -5.28886e-06 0)
(0.0200695 -8.81757e-06 0)
(0.0200687 -1.23262e-05 0)
(0.0195798 -1.82571e-06 0)
(0.0200706 -5.71389e-06 0)
(0.0200732 -9.52875e-06 0)
(0.0200723 -1.33227e-05 0)
(0.0195838 -1.97189e-06 0)
(0.0200746 -6.17419e-06 0)
(0.0200771 -1.03038e-05 0)
(0.0200762 -1.4405e-05 0)
(0.019588 -2.13077e-06 0)
(0.0200789 -6.676e-06 0)
(0.0200814 -1.11473e-05 0)
(0.0200804 -1.55788e-05 0)
(0.0195926 -2.30694e-06 0)
(0.0200836 -7.22378e-06 0)
(0.0200861 -1.20611e-05 0)
(0.0200849 -1.68498e-05 0)
(0.0195975 -2.50109e-06 0)
(0.0200887 -7.81903e-06 0)
(0.0200911 -1.3047e-05 0)
(0.0200898 -1.82212e-05 0)
(0.0196028 -2.71142e-06 0)
(0.0200942 -8.45991e-06 0)
(0.0200965 -1.41094e-05 0)
(0.0200952 -1.97045e-05 0)
(0.0196086 -2.93752e-06 0)
(0.0201001 -9.15159e-06 0)
(0.0201023 -1.52591e-05 0)
(0.0201009 -2.1311e-05 0)
(0.0196149 -3.18018e-06 0)
(0.0201065 -9.89926e-06 0)
(0.0201087 -1.65056e-05 0)
(0.0201071 -2.30522e-05 0)
(0.0196217 -3.44117e-06 0)
(0.0201135 -1.07085e-05 0)
(0.0201155 -1.78572e-05 0)
(0.0201139 -2.49386e-05 0)
(0.019629 -3.72494e-06 0)
(0.020121 -1.15871e-05 0)
(0.020123 -1.93227e-05 0)
(0.0201211 -2.69827e-05 0)
(0.019637 -4.03548e-06 0)
(0.0201291 -1.25415e-05 0)
(0.020131 -2.09098e-05 0)
(0.020129 -2.9196e-05 0)
(0.0196456 -4.37309e-06 0)
(0.0201379 -1.35749e-05 0)
(0.0201397 -2.26264e-05 0)
(0.0201375 -3.15912e-05 0)
(0.0196549 -4.73691e-06 0)
(0.0201474 -1.46909e-05 0)
(0.0201491 -2.44835e-05 0)
(0.0201467 -3.41845e-05 0)
(0.019665 -5.12726e-06 0)
(0.0201577 -1.58968e-05 0)
(0.0201592 -2.64958e-05 0)
(0.0201567 -3.6994e-05 0)
(0.0196759 -5.54781e-06 0)
(0.0201689 -1.72028e-05 0)
(0.0201702 -2.86786e-05 0)
(0.0201675 -4.00391e-05 0)
(0.0196877 -6.0039e-06 0)
(0.0201809 -1.86199e-05 0)
(0.0201821 -3.10464e-05 0)
(0.0201792 -4.33392e-05 0)
(0.0197005 -6.50151e-06 0)
(0.020194 -2.0159e-05 0)
(0.020195 -3.36119e-05 0)
(0.0201918 -4.69138e-05 0)
(0.0197143 -7.04421e-06 0)
(0.0202081 -2.18281e-05 0)
(0.0202089 -3.63882e-05 0)
(0.0202055 -5.07835e-05 0)
(0.0197293 -7.6337e-06 0)
(0.0202233 -2.36354e-05 0)
(0.020224 -3.93918e-05 0)
(0.0202203 -5.49727e-05 0)
(0.0197455 -8.2705e-06 0)
(0.0202399 -2.55896e-05 0)
(0.0202404 -4.26439e-05 0)
(0.0202363 -5.95125e-05 0)
(0.0197631 -8.95729e-06 0)
(0.0202578 -2.77053e-05 0)
(0.0202581 -4.61708e-05 0)
(0.0202537 -6.44345e-05 0)
(0.0197821 -9.70038e-06 0)
(0.0202772 -2.99999e-05 0)
(0.0202772 -4.99974e-05 0)
(0.0202725 -6.97725e-05 0)
(0.0198028 -1.05073e-05 0)
(0.0202982 -3.24898e-05 0)
(0.020298 -5.41484e-05 0)
(0.0202928 -7.55603e-05 0)
(0.0198251 -1.13838e-05 0)
(0.020321 -3.51908e-05 0)
(0.0203204 -5.86492e-05 0)
(0.0203148 -8.18351e-05 0)
(0.0198493 -1.23353e-05 0)
(0.0203456 -3.81197e-05 0)
(0.0203447 -6.35286e-05 0)
(0.0203387 -8.86386e-05 0)
(0.0198755 -1.33663e-05 0)
(0.0203723 -4.12953e-05 0)
(0.0203711 -6.88209e-05 0)
(0.0203645 -9.6018e-05 0)
(0.0199039 -1.44841e-05 0)
(0.0204012 -4.47405e-05 0)
(0.0203996 -7.45644e-05 0)
(0.0203925 -0.000104026 0)
(0.0199347 -1.56976e-05 0)
(0.0204325 -4.84806e-05 0)
(0.0204305 -8.07997e-05 0)
(0.0204228 -0.000112717 0)
(0.019968 -1.70162e-05 0)
(0.0204665 -5.25423e-05 0)
(0.020464 -8.75686e-05 0)
(0.0204556 -0.00012215 0)
(0.0200042 -1.84485e-05 0)
(0.0205033 -5.6953e-05 0)
(0.0205003 -9.49167e-05 0)
(0.0204912 -0.00013239 0)
(0.0200433 -2.00049e-05 0)
(0.0205431 -6.17426e-05 0)
(0.0205397 -0.000102896 0)
(0.0205297 -0.000143511 0)
(0.0200858 -2.16968e-05 0)
(0.0205863 -6.69468e-05 0)
(0.0205823 -0.000111566 0)
(0.0205715 -0.000155594 0)
(0.0201319 -2.35369e-05 0)
(0.0206332 -7.26051e-05 0)
(0.0206285 -0.000120991 0)
(0.0206168 -0.000168728 0)
(0.0201819 -2.55394e-05 0)
(0.020684 -7.8759e-05 0)
(0.0206787 -0.00013124 0)
(0.0206659 -0.000183007 0)
(0.0202361 -2.77177e-05 0)
(0.0207392 -8.54525e-05 0)
(0.0207331 -0.000142386 0)
(0.0207192 -0.000198537 0)
(0.020295 -3.00855e-05 0)
(0.020799 -9.2734e-05 0)
(0.0207921 -0.000154516 0)
(0.020777 -0.000215437 0)
(0.0203588 -3.26602e-05 0)
(0.020864 -0.000100661 0)
(0.0208561 -0.000167727 0)
(0.0208396 -0.000233839 0)
(0.0204282 -3.54647e-05 0)
(0.0209345 -0.0001093 0)
(0.0209256 -0.000182126 0)
(0.0209077 -0.000253888 0)
(0.0205035 -3.85255e-05 0)
(0.021011 -0.000118724 0)
(0.0210011 -0.000197825 0)
(0.0209815 -0.000275738 0)
(0.0205854 -4.18707e-05 0)
(0.0210942 -0.000129009 0)
(0.021083 -0.000214946 0)
(0.0210617 -0.000299565 0)
(0.0206743 -4.55239e-05 0)
(0.0211845 -0.000140234 0)
(0.0211721 -0.000233627 0)
(0.0211487 -0.000325563 0)
(0.020771 -4.95167e-05 0)
(0.0212827 -0.000152495 0)
(0.0212689 -0.000254029 0)
(0.0212434 -0.000353953 0)
(0.0208762 -5.38801e-05 0)
(0.0213896 -0.000165896 0)
(0.0213741 -0.000276329 0)
(0.0213462 -0.000384982 0)
(0.0209907 -5.86517e-05 0)
(0.0215058 -0.000180561 0)
(0.0214885 -0.000300732 0)
(0.021458 -0.000418927 0)
(0.0211153 -6.38808e-05 0)
(0.0216323 -0.000196627 0)
(0.0216131 -0.00032746 0)
(0.0215797 -0.000456094 0)
(0.0212511 -6.96171e-05 0)
(0.0217701 -0.000214244 0)
(0.0217487 -0.000356761 0)
(0.021712 -0.000496827 0)
(0.021399 -7.59136e-05 0)
(0.0219203 -0.00023358 0)
(0.0218965 -0.000388917 0)
(0.0218562 -0.000541512 0)
(0.0215604 -8.28321e-05 0)
(0.022084 -0.000254829 0)
(0.0220575 -0.000424248 0)
(0.0220132 -0.000590592 0)
(0.0217366 -9.0446e-05 0)
(0.0222627 -0.000278213 0)
(0.0222332 -0.000463119 0)
(0.0221844 -0.00064457 0)
(0.021929 -9.88399e-05 0)
(0.0224578 -0.000303986 0)
(0.0224249 -0.000505947 0)
(0.0223711 -0.000704012 0)
(0.0221394 -0.000108109 0)
(0.022671 -0.000332434 0)
(0.0226343 -0.000553198 0)
(0.0225749 -0.000769563 0)
(0.0223695 -0.000118361 0)
(0.0229042 -0.000363883 0)
(0.0228632 -0.000605412 0)
(0.0227976 -0.000841964 0)
(0.0226216 -0.000129715 0)
(0.0231595 -0.000398708 0)
(0.0231138 -0.000663214 0)
(0.023041 -0.000922074 0)
(0.0228979 -0.000142316 0)
(0.0234393 -0.000437352 0)
(0.0233881 -0.000727333 0)
(0.0233074 -0.00101089 0)
(0.0232013 -0.000156334 0)
(0.0237463 -0.000480332 0)
(0.023689 -0.00079861 0)
(0.0235992 -0.00110954 0)
(0.0235347 -0.00017197 0)
(0.0240836 -0.000528243 0)
(0.0240192 -0.000878013 0)
(0.023919 -0.00121935 0)
(0.0239017 -0.000189451 0)
(0.0244546 -0.000581778 0)
(0.0243822 -0.00096668 0)
(0.0242702 -0.00134188 0)
(0.0243063 -0.000209044 0)
(0.0248634 -0.000641758 0)
(0.0247817 -0.00106597 0)
(0.0246561 -0.00147896 0)
(0.024753 -0.000231072 0)
(0.0253144 -0.000709171 0)
(0.025222 -0.00117748 0)
(0.0250808 -0.00163275 0)
(0.0252471 -0.000255929 0)
(0.025813 -0.000785191 0)
(0.0257082 -0.00130311 0)
(0.0255489 -0.0018058 0)
(0.0257949 -0.000284078 0)
(0.0263652 -0.000871208 0)
(0.0262459 -0.00144513 0)
(0.0260656 -0.00200117 0)
(0.0264036 -0.000316074 0)
(0.0269781 -0.000968911 0)
(0.0268419 -0.00160629 0)
(0.026637 -0.00222255 0)
(0.0270815 -0.000352605 0)
(0.0276601 -0.00108038 0)
(0.0275039 -0.00178993 0)
(0.0272699 -0.00247438 0)
(0.0278386 -0.000394521 0)
(0.0284208 -0.00120815 0)
(0.0282408 -0.00200013 0)
(0.0279725 -0.00276207 0)
(0.0286868 -0.000442869 0)
(0.0292719 -0.00135535 0)
(0.0290634 -0.00224193 0)
(0.0287541 -0.00309228 0)
(0.0296403 -0.000498956 0)
(0.0302271 -0.00152589 0)
(0.0299843 -0.00252157 0)
(0.0296257 -0.00347324 0)
(0.0307163 -0.000564442 0)
(0.031303 -0.00172472 0)
(0.0310184 -0.00284693 0)
(0.0306002 -0.00391521 0)
(0.0319356 -0.000641457 0)
(0.0325196 -0.00195815 0)
(0.0321837 -0.00322799 0)
(0.0316926 -0.00443111 0)
(0.033324 -0.00073274 0)
(0.0339014 -0.00223427 0)
(0.0335019 -0.00367751 0)
(0.0329209 -0.00503736 0)
(0.0349135 -0.000841884 0)
(0.0354788 -0.00256366 0)
(0.0349994 -0.00421206 0)
(0.0343063 -0.00575508 0)
(0.0367442 -0.000973683 0)
(0.0372894 -0.00296032 0)
(0.0367085 -0.00485338 0)
(0.0358742 -0.00661161 0)
(0.0388674 -0.00113459 0)
(0.0393806 -0.00344303 0)
(0.0386693 -0.00563036 0)
(0.0376549 -0.0076429 0)
(0.0413492 -0.00133344 0)
(0.0418132 -0.00403732 0)
(0.0409315 -0.00658196 0)
(0.0396843 -0.00889674 0)
(0.0442763 -0.00158255 0)
(0.0446654 -0.00477854 0)
(0.0435578 -0.00776152 0)
(0.0420057 -0.0104374 0)
(0.0477643 -0.00189945 0)
(0.0480403 -0.00571649 0)
(0.0466279 -0.00924322 0)
(0.04467 -0.0123528 0)
(0.0519695 -0.00230944 0)
(0.0520746 -0.00692261 0)
(0.0502437 -0.0111321 0)
(0.0477371 -0.0147643 0)
(0.0571117 -0.00284976 0)
(0.0569568 -0.00850074 0)
(0.0545379 -0.013579 0)
(0.0512753 -0.017843 0)
(0.0634775 -0.00357674 0)
(0.0629328 -0.0106089 0)
(0.0596835 -0.0168087 0)
(0.0553615 -0.0218338 0)
(0.0715904 -0.00456959 0)
(0.0704157 -0.0134635 0)
(0.0659076 -0.0211414 0)
(0.0600612 -0.0270929 0)
(0.0816698 -0.0059798 0)
(0.0797413 -0.0175006 0)
(0.0735881 -0.027137 0)
(0.0654988 -0.0341433 0)
(0.0962681 -0.0078998 0)
(0.0923263 -0.0229675 0)
(0.0828616 -0.0354367 0)
(0.0714215 -0.0438767 0)
(0.110179 -0.0105931 0)
(0.106977 -0.0311082 0)
(0.0958874 -0.0475072 0)
(0.0790581 -0.0572204 0)
(0.145603 -0.0158958 0)
(0.132861 -0.0441845 0)
(0.109698 -0.0656227 0)
(0.083748 -0.0778481 0)
(0.156014 -0.0164865 0)
(0.149943 -0.0516853 0)
(0.133742 -0.0867037 0)
(0.103489 -0.105127 0)
(0.24423 -0.0335138 0)
(0.22335 -0.0974117 0)
(0.174891 -0.146862 0)
(0.101383 -0.166313 0)
(0.0447532 0.0264986 0)
(0.0316697 0.0417039 0)
(0.0286447 0.0502239 0)
(0.0293714 0.0472454 0)
(0.030751 0.0377061 0)
(0.0313308 0.0283274 0)
(0.0307892 0.0214246 0)
(0.0297516 0.0165453 0)
(0.0286056 0.0130014 0)
(0.0274936 0.0103466 0)
(0.0264661 0.00831842 0)
(0.0255439 0.00674534 0)
(0.0247322 0.00550898 0)
(0.024026 0.00452627 0)
(0.0234162 0.00373764 0)
(0.0228924 0.00309949 0)
(0.022444 0.00257936 0)
(0.0220613 0.00215271 0)
(0.0217353 0.00180083 0)
(0.0214582 0.00150922 0)
(0.0212228 0.0012666 0)
(0.0210232 0.00106402 0)
(0.0208542 0.000894378 0)
(0.0207113 0.000752016 0)
(0.0205906 0.000632282 0)
(0.0204889 0.000531469 0)
(0.0204032 0.000446417 0)
(0.0203312 0.000374666 0)
(0.0202708 0.000314054 0)
(0.0202204 0.000262865 0)
(0.0201782 0.000219618 0)
(0.0201432 0.000183101 0)
(0.0201141 0.000152243 0)
(0.0200901 0.000126218 0)
(0.0200704 0.000104258 0)
(0.0200543 8.57797e-05 0)
(0.0200412 7.02056e-05 0)
(0.0200306 5.7113e-05 0)
(0.0200222 4.61688e-05 0)
(0.0200156 3.69796e-05 0)
(0.0200104 2.9269e-05 0)
(0.0200065 2.28731e-05 0)
(0.0200035 1.7581e-05 0)
(0.0200014 1.31844e-05 0)
(0.02 9.54937e-06 0)
(0.0199992 6.56402e-06 0)
(0.0199988 4.12529e-06 0)
(0.0199988 2.14933e-06 0)
(0.019999 5.61484e-07 0)
(0.0199995 -7.07243e-07 0)
(0.0200002 -1.70966e-06 0)
(0.020001 -2.48728e-06 0)
(0.0200019 -3.07987e-06 0)
(0.0200028 -3.522e-06 0)
(0.0200038 -3.83826e-06 0)
(0.0200049 -4.0509e-06 0)
(0.0200059 -4.18132e-06 0)
(0.020007 -4.25121e-06 0)
(0.020008 -4.26982e-06 0)
(0.020009 -4.24155e-06 0)
(0.02001 -4.17652e-06 0)
(0.020011 -4.08916e-06 0)
(0.0200119 -3.98792e-06 0)
(0.0200128 -3.87418e-06 0)
(0.0200137 -3.75144e-06 0)
(0.0200145 -3.62723e-06 0)
(0.0200153 -3.5067e-06 0)
(0.0200161 -3.38649e-06 0)
(0.0200168 -3.26361e-06 0)
(0.0200175 -3.14136e-06 0)
(0.0200182 -3.02807e-06 0)
(0.0200189 -2.92546e-06 0)
(0.0200195 -2.83087e-06 0)
(0.0200201 -2.74166e-06 0)
(0.0200207 -2.66167e-06 0)
(0.0200213 -2.59515e-06 0)
(0.0200218 -2.54149e-06 0)
(0.0200224 -2.4974e-06 0)
(0.0200229 -2.46134e-06 0)
(0.0200235 -2.43619e-06 0)
(0.020024 -2.4243e-06 0)
(0.0200245 -2.42577e-06 0)
(0.0200251 -2.43818e-06 0)
(0.0200256 -2.46177e-06 0)
(0.0200261 -2.49875e-06 0)
(0.0200267 -2.55162e-06 0)
(0.0200272 -2.62001e-06 0)
(0.0200278 -2.70186e-06 0)
(0.0200284 -2.79748e-06 0)
(0.020029 -2.90855e-06 0)
(0.0200297 -3.03786e-06 0)
(0.0200304 -3.1864e-06 0)
(0.0200311 -3.35289e-06 0)
(0.0200318 -3.53764e-06 0)
(0.0200326 -3.74276e-06 0)
(0.0200334 -3.971e-06 0)
(0.0200343 -4.22557e-06 0)
(0.0200353 -4.50682e-06 0)
(0.0200363 -4.81448e-06 0)
(0.0200373 -5.14949e-06 0)
(0.0200385 -5.51545e-06 0)
(0.0200397 -5.91641e-06 0)
(0.020041 -6.35651e-06 0)
(0.0200425 -6.83696e-06 0)
(0.020044 -7.35821e-06 0)
(0.0200456 -7.92224e-06 0)
(0.0200474 -8.53294e-06 0)
(0.0200493 -9.19721e-06 0)
(0.0200514 -9.92105e-06 0)
(0.0200536 -1.0709e-05 0)
(0.020056 -1.15638e-05 0)
(0.0200585 -1.24884e-05 0)
(0.0200613 -1.34877e-05 0)
(0.0200643 -1.45699e-05 0)
(0.0200676 -1.57433e-05 0)
(0.0200711 -1.70177e-05 0)
(0.0200749 -1.83998e-05 0)
(0.020079 -1.98967e-05 0)
(0.0200834 -2.15168e-05 0)
(0.0200882 -2.32666e-05 0)
(0.0200934 -2.51609e-05 0)
(0.020099 -2.72137e-05 0)
(0.0201051 -2.94377e-05 0)
(0.0201116 -3.18471e-05 0)
(0.0201187 -3.44565e-05 0)
(0.0201264 -3.72814e-05 0)
(0.0201347 -4.0339e-05 0)
(0.0201436 -4.36501e-05 0)
(0.0201534 -4.72373e-05 0)
(0.0201639 -5.11246e-05 0)
(0.0201753 -5.53359e-05 0)
(0.0201876 -5.98965e-05 0)
(0.0202009 -6.48339e-05 0)
(0.0202153 -7.01815e-05 0)
(0.0202309 -7.59769e-05 0)
(0.0202478 -8.22601e-05 0)
(0.0202661 -8.90728e-05 0)
(0.0202859 -9.6458e-05 0)
(0.0203074 -0.000104464 0)
(0.0203306 -0.000113144 0)
(0.0203557 -0.000122559 0)
(0.0203829 -0.000132774 0)
(0.0204124 -0.00014386 0)
(0.0204444 -0.00015589 0)
(0.020479 -0.000168949 0)
(0.0205165 -0.00018313 0)
(0.0205572 -0.000198538 0)
(0.0206012 -0.000215283 0)
(0.020649 -0.000233486 0)
(0.0207007 -0.00025328 0)
(0.0207569 -0.000274818 0)
(0.0208178 -0.000298264 0)
(0.0208838 -0.000323801 0)
(0.0209555 -0.000351627 0)
(0.0210333 -0.000381963 0)
(0.0211178 -0.000415058 0)
(0.0212096 -0.000451191 0)
(0.0213093 -0.000490672 0)
(0.0214176 -0.00053385 0)
(0.0215354 -0.000581107 0)
(0.0216635 -0.000632875 0)
(0.0218029 -0.000689643 0)
(0.0219547 -0.000751968 0)
(0.02212 -0.000820477 0)
(0.0223002 -0.00089588 0)
(0.0224967 -0.000978981 0)
(0.0227111 -0.00107071 0)
(0.0229453 -0.00117214 0)
(0.0232012 -0.00128449 0)
(0.0234811 -0.00140917 0)
(0.0237875 -0.00154782 0)
(0.0241232 -0.00170237 0)
(0.0244915 -0.00187506 0)
(0.024896 -0.00206853 0)
(0.0253407 -0.0022859 0)
(0.0258303 -0.0025309 0)
(0.0263699 -0.00280797 0)
(0.0269657 -0.00312248 0)
(0.0276245 -0.0034809 0)
(0.0283541 -0.00389114 0)
(0.0291634 -0.00436294 0)
(0.0300629 -0.00490831 0)
(0.0310643 -0.00554222 0)
(0.0321811 -0.00628356 0)
(0.0334288 -0.00715623 0)
(0.034825 -0.00819084 0)
(0.0363891 -0.00942691 0)
(0.0381427 -0.010916 0)
(0.0401084 -0.0127261 0)
(0.0423085 -0.0149474 0)
(0.0447619 -0.0177014 0)
(0.0474776 -0.0211529 0)
(0.0504438 -0.0255275 0)
(0.0536054 -0.0311394 0)
(0.056827 -0.0384157 0)
(0.0598015 -0.0480266 0)
(0.0619095 -0.0606698 0)
(0.0615778 -0.0784534 0)
(0.0587606 -0.101935 0)
(0.0174417 -0.142782 0)
(0.00149378 0.00605308 0)
(-0.00288335 0.0378533 0)
(0.00464106 0.0452898 0)
(0.0135396 0.0415569 0)
(0.0201464 0.0339334 0)
(0.0237471 0.02684 0)
(0.0252766 0.0212631 0)
(0.0256782 0.0169905 0)
(0.0255286 0.0136883 0)
(0.0251267 0.0111059 0)
(0.02462 0.00906676 0)
(0.0240875 0.00744286 0)
(0.0235716 0.00613928 0)
(0.0230929 0.00508517 0)
(0.0226601 0.00422715 0)
(0.0222755 0.0035246 0)
(0.0219377 0.0029463 0)
(0.0216435 0.002468 0)
(0.021389 0.00207079 0)
(0.0211699 0.00173971 0)
(0.0209821 0.00146289 0)
(0.0208217 0.00123085 0)
(0.020685 0.00103587 0)
(0.020569 0.000871775 0)
(0.0204708 0.000733418 0)
(0.0203878 0.000616711 0)
(0.0203179 0.00051812 0)
(0.0202592 0.000434828 0)
(0.02021 0.000364408 0)
(0.0201689 0.000304893 0)
(0.0201348 0.000254573 0)
(0.0201065 0.000212056 0)
(0.0200832 0.000176152 0)
(0.020064 0.000145862 0)
(0.0200484 0.000120285 0)
(0.0200358 9.87867e-05 0)
(0.0200256 8.06924e-05 0)
(0.0200176 6.54688e-05 0)
(0.0200113 5.27204e-05 0)
(0.0200064 4.20549e-05 0)
(0.0200028 3.31527e-05 0)
(0.0200001 2.57455e-05 0)
(0.0199983 1.959e-05 0)
(0.0199971 1.44982e-05 0)
(0.0199965 1.03149e-05 0)
(0.0199963 6.8873e-06 0)
(0.0199965 4.08911e-06 0)
(0.0199969 1.82313e-06 0)
(0.0199976 6.41166e-09 0)
(0.0199984 -1.43337e-06 0)
(0.0199993 -2.56143e-06 0)
(0.0200003 -3.43545e-06 0)
(0.0200014 -4.09969e-06 0)
(0.0200025 -4.58648e-06 0)
(0.0200036 -4.92476e-06 0)
(0.0200048 -5.14563e-06 0)
(0.0200059 -5.27257e-06 0)
(0.020007 -5.32601e-06 0)
(0.0200081 -5.31919e-06 0)
(0.0200091 -5.26678e-06 0)
(0.0200101 -5.18204e-06 0)
(0.0200111 -5.07097e-06 0)
(0.0200121 -4.93437e-06 0)
(0.020013 -4.77813e-06 0)
(0.0200138 -4.61412e-06 0)
(0.0200147 -4.45158e-06 0)
(0.0200155 -4.2914e-06 0)
(0.0200162 -4.13116e-06 0)
(0.020017 -3.97529e-06 0)
(0.0200177 -3.8307e-06 0)
(0.0200184 -3.69897e-06 0)
(0.020019 -3.57491e-06 0)
(0.0200196 -3.45574e-06 0)
(0.0200202 -3.34552e-06 0)
(0.0200208 -3.25026e-06 0)
(0.0200214 -3.17077e-06 0)
(0.0200219 -3.10217e-06 0)
(0.0200225 -3.0433e-06 0)
(0.020023 -2.99721e-06 0)
(0.0200235 -2.96788e-06 0)
(0.020024 -2.95452e-06 0)
(0.0200245 -2.95413e-06 0)
(0.0200251 -2.96616e-06 0)
(0.0200256 -2.99443e-06 0)
(0.0200261 -3.04163e-06 0)
(0.0200266 -3.10734e-06 0)
(0.0200272 -3.18908e-06 0)
(0.0200277 -3.28619e-06 0)
(0.0200283 -3.40087e-06 0)
(0.0200289 -3.53714e-06 0)
(0.0200295 -3.69508e-06 0)
(0.0200302 -3.87359e-06 0)
(0.0200309 -4.07238e-06 0)
(0.0200316 -4.29419e-06 0)
(0.0200324 -4.54375e-06 0)
(0.0200332 -4.82337e-06 0)
(0.020034 -5.13371e-06 0)
(0.0200349 -5.47353e-06 0)
(0.0200359 -5.84386e-06 0)
(0.0200369 -6.24841e-06 0)
(0.0200381 -6.69284e-06 0)
(0.0200392 -7.18112e-06 0)
(0.0200405 -7.71456e-06 0)
(0.0200419 -8.2943e-06 0)
(0.0200434 -8.92185e-06 0)
(0.020045 -9.60259e-06 0)
(0.0200467 -1.03433e-05 0)
(0.0200485 -1.11503e-05 0)
(0.0200505 -1.20293e-05 0)
(0.0200526 -1.29832e-05 0)
(0.020055 -1.40163e-05 0)
(0.0200575 -1.51335e-05 0)
(0.0200601 -1.63427e-05 0)
(0.0200631 -1.76543e-05 0)
(0.0200662 -1.9077e-05 0)
(0.0200696 -2.06205e-05 0)
(0.0200733 -2.22924e-05 0)
(0.0200772 -2.41022e-05 0)