/*--------------------------------*- C++ -*----------------------------------*\
  =========                 |
  \\      /  F ield         | OpenFOAM: The Open Source CFD Toolbox
   \\    /   O peration     | Website:  https://openfoam.org
    \\  /    A nd           | Version:  dev
     \\/     M anipulation  |
\*---------------------------------------------------------------------------*/
FoamFile
{
    version     2.0;
    format      ascii;
    class       surfaceScalarField;
    location    "4";
    object      phi;
}
// * * * * * * * * * * * * * * * * * * * * * * * * * * * * * * * * * * * * * //

dimensions      [1 0 -1 0 0 0 0];

internalField   nonuniform List<scalar> 
15760
(
1.63195e-05
0.0011423
2.86454e-05
0.00114629
5.75939e-05
0.00112966
0.00113828
7.79185e-05
4.89136e-05
0.00109339
9.37989e-05
0.0011014
0.00015446
0.001069
0.00107045
0.000222286
7.40354e-05
0.00101935
0.000151235
0.0010242
0.000242995
0.000977237
0.000952892
0.00036055
9.17706e-05
0.000927581
0.000192609
0.000923365
0.000302658
0.000867189
0.000815206
0.000440347
0.000105964
0.000821618
0.000215902
0.000813428
0.000329339
0.000753752
0.000681717
0.000462831
0.000113056
0.000708562
0.000218609
0.000707876
0.000322046
0.000650315
0.000570795
0.000432969
0.000104904
0.000603658
0.00019868
0.000614099
0.000284933
0.000564062
0.00049166
0.000364068
8.42407e-05
0.000519417
0.00016322
0.00053512
0.000231752
0.00049553
0.000438211
0.0002852
6.33633e-05
0.000456053
0.000126845
0.000471638
0.000180162
0.000442213
0.000399469
0.000218904
4.78993e-05
0.000408154
9.7467e-05
0.00042207
0.000138863
0.000400817
0.000369075
0.000169258
3.71215e-05
0.000371033
7.55435e-05
0.000383648
0.000108077
0.000368283
0.000344419
0.000132733
2.92982e-05
0.000341734
5.92698e-05
0.000353677
8.51526e-05
0.0003424
0.000324242
0.000105329
2.33538e-05
0.000318381
4.69972e-05
0.000330033
6.77874e-05
0.00032161
0.000307631
8.43989e-05
1.87412e-05
0.000299639
3.75979e-05
0.000311176
5.44315e-05
0.000304777
0.000293886
6.81761e-05
1.51286e-05
0.000284511
3.03083e-05
0.000295997
4.40272e-05
0.000291058
0.000282479
5.54348e-05
1.22776e-05
0.000272233
2.45897e-05
0.000283685
3.58274e-05
0.00027982
0.000272993
4.53128e-05
1.00101e-05
0.000262223
2.00552e-05
0.00027364
2.92961e-05
0.000270579
0.000265098
3.71912e-05
8.19248e-06
0.000254031
1.64242e-05
0.000265408
2.40441e-05
0.000262959
0.000258525
3.06177e-05
6.72449e-06
0.000247306
1.34917e-05
0.000258641
1.97859e-05
0.000256665
0.000253053
2.52576e-05
5.53055e-06
0.000241775
1.11053e-05
0.000253066
1.63086e-05
0.000251462
0.000248503
2.08588e-05
4.55364e-06
0.000237222
9.15098e-06
0.000248469
1.3452e-05
0.000247161
0.000244725
1.72298e-05
3.74986e-06
0.000233472
7.54142e-06
0.000244677
1.10932e-05
0.000243609
0.000241596
1.42226e-05
3.08531e-06
0.000230387
6.2096e-06
0.000241553
9.13747e-06
0.000240681
0.000239011
1.17217e-05
2.53404e-06
0.000227853
5.10374e-06
0.000238983
7.51082e-06
0.000238274
0.000236886
9.6365e-06
2.0755e-06
0.000225777
4.18291e-06
0.000236876
6.15453e-06
0.000236302
0.000235146
7.89436e-06
1.69333e-06
0.000224084
3.41464e-06
0.000235154
5.02196e-06
0.000234695
0.000233731
6.43738e-06
1.37433e-06
0.000222709
2.77274e-06
0.000233756
4.07504e-06
0.000233393
0.000232588
5.21775e-06
1.10787e-06
0.000221602
2.23617e-06
0.000232628
3.28333e-06
0.000232346
0.000231674
4.19723e-06
8.85365e-07
0.000220716
1.78773e-06
0.000231725
2.62153e-06
0.000231512
0.000230952
3.34365e-06
6.99662e-07
0.000220016
1.41329e-06
0.000231012
2.06894e-06
0.000230856
0.00023039
2.63085e-06
5.44965e-07
0.000219471
1.10132e-06
0.000230455
1.60844e-06
0.000230349
0.000229962
2.03663e-06
4.16279e-07
0.000219055
8.41612e-07
0.00023003
1.22532e-06
0.000229965
0.000229645
1.54252e-06
3.0975e-07
0.000218745
6.26401e-07
0.000229713
9.07777e-07
0.000229684
0.000229419
1.13303e-06
2.21489e-07
0.000218524
4.48258e-07
0.000229487
6.45225e-07
0.000229487
0.00022927
7.94957e-07
1.48991e-07
0.000218375
3.0178e-07
0.000229334
4.29496e-07
0.000229359
0.000229182
5.17209e-07
8.96439e-08
0.000218285
1.81892e-07
0.000229241
2.52999e-07
0.000229288
0.000229144
2.9059e-07
4.13163e-08
0.000218244
8.45241e-08
0.000229198
1.09826e-07
0.000229263
0.000229147
1.06963e-07
2.47116e-09
0.000218241
6.09327e-09
0.000229195
-5.37564e-09
0.000229274
0.000229182
-4.0678e-08
-2.83757e-08
0.00021827
-5.64169e-08
0.000229223
-9.71235e-08
0.000229315
0.000229243
-1.57782e-07
-5.27522e-08
0.000218323
-1.05697e-07
0.000229276
-1.69272e-07
0.000229379
0.000229323
-2.49502e-07
-7.16881e-08
0.000218394
-1.44028e-07
0.000229348
-2.25226e-07
0.00022946
0.000229418
-3.20252e-07
-8.61252e-08
0.00021848
-1.73009e-07
0.000229435
-2.67452e-07
0.000229554
0.000229524
-3.73255e-07
-9.669e-08
0.000218577
-1.94241e-07
0.000229532
-2.98186e-07
0.000229658
0.000229637
-4.11524e-07
-1.03992e-07
0.000218681
-2.09291e-07
0.000229638
-3.19591e-07
0.000229769
0.000229756
-4.37804e-07
-1.08728e-07
0.00021879
-2.19105e-07
0.000229748
-3.33316e-07
0.000229883
0.000229876
-4.54123e-07
-1.11417e-07
0.000218901
-2.24467e-07
0.000229861
-3.40762e-07
0.000229999
0.000229998
-4.62248e-07
-1.12442e-07
0.000219014
-2.26366e-07
0.000229975
-3.4316e-07
0.000230116
0.000230119
-4.63915e-07
-1.12039e-07
0.000219126
-2.25593e-07
0.000230089
-3.4146e-07
0.000230232
0.000230238
-4.60458e-07
-1.10483e-07
0.000219236
-2.2263e-07
0.000230201
-3.36462e-07
0.000230346
0.000230354
-4.52852e-07
-1.08093e-07
0.000219344
-2.17918e-07
0.000230311
-3.28967e-07
0.000230457
0.000230467
-4.42016e-07
-1.05082e-07
0.000219449
-2.11884e-07
0.000230417
-3.19595e-07
0.000230564
0.000230576
-4.2876e-07
-1.0159e-07
0.000219551
-2.0485e-07
0.000230521
-3.08781e-07
0.000230668
0.000230681
-4.13727e-07
-9.77429e-08
0.000219649
-1.97087e-07
0.00023062
-2.96929e-07
0.000230768
0.000230782
-3.97437e-07
-9.36599e-08
0.000219742
-1.88861e-07
0.000230715
-2.84403e-07
0.000230864
0.000230878
-3.80333e-07
-8.94258e-08
0.000219832
-1.80366e-07
0.000230806
-2.71483e-07
0.000230955
0.000230969
-3.62755e-07
-8.51122e-08
0.000219917
-1.71733e-07
0.000230893
-2.58359e-07
0.000231041
0.000231056
-3.45e-07
-8.07938e-08
0.000219998
-1.63067e-07
0.000230975
-2.45229e-07
0.000231123
0.000231138
-3.27278e-07
-7.65205e-08
0.000220074
-1.54471e-07
0.000231053
-2.3225e-07
0.000231201
0.000231215
-3.09796e-07
-7.23379e-08
0.000220146
-1.46042e-07
0.000231127
-2.19539e-07
0.000231275
0.000231288
-2.92686e-07
-6.82611e-08
0.000220215
-1.37833e-07
0.000231196
-2.07165e-07
0.000231344
0.000231357
-2.76065e-07
-6.43098e-08
0.000220279
-1.29892e-07
0.000231262
-1.95177e-07
0.000231409
0.000231422
-2.60015e-07
-6.05048e-08
0.000220339
-1.22234e-07
0.000231324
-1.83653e-07
0.000231471
0.000231483
-2.44595e-07
-5.68572e-08
0.000220396
-1.14906e-07
0.000231382
-1.72625e-07
0.000231529
0.00023154
-2.29837e-07
-5.33698e-08
0.00022045
-1.07922e-07
0.000231436
-1.6211e-07
0.000231583
0.000231594
-2.15756e-07
-5.00645e-08
0.0002205
-1.01271e-07
0.000231487
-1.52109e-07
0.000231634
0.000231644
-2.02387e-07
-4.69338e-08
0.000220547
-9.49589e-08
0.000231535
-1.42631e-07
0.000231681
0.000231691
-1.89742e-07
-4.3973e-08
0.000220591
-8.8991e-08
0.00023158
-1.33697e-07
0.000231726
0.000231735
-1.77809e-07
-4.11824e-08
0.000220632
-8.3385e-08
0.000231623
-1.25272e-07
0.000231768
0.000231777
-1.66572e-07
-3.85555e-08
0.00022067
-7.81149e-08
0.000231662
-1.17344e-07
0.000231807
0.000231815
-1.56017e-07
-3.60935e-08
0.000220706
-7.31677e-08
0.000231699
-1.09909e-07
0.000231844
0.000231852
-1.46135e-07
-3.37981e-08
0.00022074
-6.85408e-08
0.000231734
-1.02963e-07
0.000231878
0.000231885
-1.3691e-07
-3.16504e-08
0.000220772
-6.4231e-08
0.000231767
-9.64979e-08
0.00023191
0.000231917
-1.28299e-07
-2.96535e-08
0.000220801
-6.02206e-08
0.000231797
-9.04761e-08
0.000231941
0.000231947
-1.2028e-07
-2.78017e-08
0.000220829
-5.64928e-08
0.000231826
-8.48744e-08
0.000231969
0.000231975
-1.12827e-07
-2.60946e-08
0.000220855
-5.30265e-08
0.000231853
-7.96869e-08
0.000231996
0.000232001
-1.0594e-07
-2.45124e-08
0.00022088
-4.98291e-08
0.000231878
-7.49086e-08
0.000232021
0.000232026
-9.95846e-08
-2.30448e-08
0.000220903
-4.68933e-08
0.000231902
-7.05126e-08
0.000232044
0.000232049
-9.37265e-08
-2.169e-08
0.000220925
-4.42012e-08
0.000231924
-6.64657e-08
0.000232067
0.000232071
-8.83475e-08
-2.04566e-08
0.000220945
-4.17348e-08
0.000231946
-6.27545e-08
0.000232088
0.000232092
-8.34223e-08
-1.93438e-08
0.000220964
-3.94794e-08
0.000231966
-5.93879e-08
0.000232108
0.000232111
-7.89527e-08
-1.83387e-08
0.000220983
-3.74393e-08
0.000231985
-5.63423e-08
0.000232127
0.00023213
-7.4913e-08
-1.74206e-08
0.000221
-3.56113e-08
0.000232003
-5.36003e-08
0.000232145
0.000232148
-7.12671e-08
-1.65977e-08
0.000221017
-3.39775e-08
0.000232021
-5.11433e-08
0.000232162
0.000232164
-6.80006e-08
-1.58777e-08
0.000221032
-3.25237e-08
0.000232037
-4.8968e-08
0.000232178
0.000232181
-6.51221e-08
-1.52546e-08
0.000221048
-3.12494e-08
0.000232053
-4.70727e-08
0.000232194
0.000232196
-6.26093e-08
-1.47167e-08
0.000221062
-3.01604e-08
0.000232069
-4.54489e-08
0.000232209
0.000232211
-6.04471e-08
-1.42498e-08
0.000221077
-2.92468e-08
0.000232084
-4.40778e-08
0.000232224
0.000232226
-5.86321e-08
-1.38677e-08
0.000221091
-2.84977e-08
0.000232098
-4.29538e-08
0.000232239
0.00023224
-5.71401e-08
-1.35714e-08
0.000221104
-2.79058e-08
0.000232113
-4.20727e-08
0.000232253
0.000232254
-5.59781e-08
-1.33591e-08
0.000221117
-2.74774e-08
0.000232127
-4.1444e-08
0.000232267
0.000232267
-5.51394e-08
-1.32196e-08
0.000221131
-2.7219e-08
0.000232141
-4.10537e-08
0.000232281
0.000232281
-5.46268e-08
-1.31617e-08
0.000221144
-2.71153e-08
0.000232155
-4.09057e-08
0.000232294
0.000232295
-5.44294e-08
-1.31785e-08
0.000221157
-2.71717e-08
0.000232169
-4.09911e-08
0.000232308
0.000232308
-5.45532e-08
-1.3284e-08
0.00022117
-2.73895e-08
0.000232183
-4.13195e-08
0.000232322
0.000232322
-5.49986e-08
-1.34785e-08
0.000221184
-2.77674e-08
0.000232197
-4.19043e-08
0.000232336
0.000232336
-5.57786e-08
-1.3745e-08
0.000221197
-2.83239e-08
0.000232212
-4.27441e-08
0.000232351
0.00023235
-5.68933e-08
-1.40861e-08
0.000221212
-2.90485e-08
0.000232227
-4.38404e-08
0.000232365
0.000232364
-5.8347e-08
-1.45127e-08
0.000221226
-2.99462e-08
0.000232242
-4.51939e-08
0.000232381
0.000232379
-6.0148e-08
-1.50443e-08
0.000221241
-3.10246e-08
0.000232258
-4.68169e-08
0.000232396
0.000232395
-6.23154e-08
-1.56632e-08
0.000221257
-3.22995e-08
0.000232275
-4.87317e-08
0.000232413
0.000232411
-6.48547e-08
-1.63946e-08
0.000221273
-3.37638e-08
0.000232292
-5.09461e-08
0.00023243
0.000232428
-6.77947e-08
-1.72106e-08
0.00022129
-3.54433e-08
0.00023231
-5.34705e-08
0.000232448
0.000232445
-7.11483e-08
-1.81264e-08
0.000221308
-3.73422e-08
0.000232329
-5.63192e-08
0.000232467
0.000232464
-7.49346e-08
-1.91613e-08
0.000221328
-3.94688e-08
0.00023235
-5.95134e-08
0.000232487
0.000232484
-7.91851e-08
-2.03294e-08
0.000221348
-4.18387e-08
0.000232371
-6.3079e-08
0.000232508
0.000232505
-8.3921e-08
-2.16301e-08
0.00022137
-4.44703e-08
0.000232394
-6.7029e-08
0.000232531
0.000232527
-8.91748e-08
-2.30648e-08
0.000221393
-4.73743e-08
0.000232418
-7.13962e-08
0.000232555
0.00023255
-9.49769e-08
-2.46254e-08
0.000221417
-5.0571e-08
0.000232444
-7.62051e-08
0.000232581
0.000232575
-1.01363e-07
-2.63342e-08
0.000221444
-5.40812e-08
0.000232472
-8.1483e-08
0.000232608
0.000232602
-1.08376e-07
-2.82178e-08
0.000221472
-5.79305e-08
0.000232502
-8.72667e-08
0.000232637
0.000232631
-1.16063e-07
-3.0292e-08
0.000221502
-6.21399e-08
0.000232534
-9.35971e-08
0.000232669
0.000232662
-1.24473e-07
-3.25637e-08
0.000221535
-6.67422e-08
0.000232568
-1.00514e-07
0.000232703
0.000232695
-1.33656e-07
-3.50359e-08
0.00022157
-7.17574e-08
0.000232605
-1.08053e-07
0.000232739
0.000232731
-1.43666e-07
-3.77044e-08
0.000221607
-7.72176e-08
0.000232644
-1.16263e-07
0.000232778
0.000232769
-1.5456e-07
-4.06041e-08
0.000221648
-8.31593e-08
0.000232687
-1.25181e-07
0.00023282
0.00023281
-1.66416e-07
-4.37688e-08
0.000221692
-8.96127e-08
0.000232732
-1.34886e-07
0.000232865
0.000232855
-1.79304e-07
-4.7216e-08
0.000221739
-9.66346e-08
0.000232782
-1.45432e-07
0.000232914
0.000232903
-1.93319e-07
-5.09778e-08
0.00022179
-1.04268e-07
0.000232835
-1.56889e-07
0.000232967
0.000232954
-2.08545e-07
-5.50603e-08
0.000221845
-1.12553e-07
0.000232893
-1.69339e-07
0.000233023
0.00023301
-2.25078e-07
-5.94837e-08
0.000221904
-1.21537e-07
0.000232955
-1.82848e-07
0.000233085
0.00023307
-2.43004e-07
-6.42558e-08
0.000221969
-1.3128e-07
0.000233022
-1.9748e-07
0.000233151
0.000233135
-2.62435e-07
-6.94316e-08
0.000222038
-1.41836e-07
0.000233094
-2.13345e-07
0.000233222
0.000233205
-2.83513e-07
-7.50504e-08
0.000222113
-1.53295e-07
0.000233172
-2.30557e-07
0.0002333
0.000233281
-3.06374e-07
-8.11615e-08
0.000222194
-1.65714e-07
0.000233257
-2.4922e-07
0.000233383
0.000233363
-3.31164e-07
-8.77849e-08
0.000222282
-1.79182e-07
0.000233348
-2.69452e-07
0.000233473
0.000233452
-3.58031e-07
-9.49538e-08
0.000222377
-1.93776e-07
0.000233447
-2.9138e-07
0.000233571
0.000233547
-3.87149e-07
-1.02719e-07
0.00022248
-2.09595e-07
0.000233554
-3.15141e-07
0.000233677
0.000233651
-4.18694e-07
-1.11133e-07
0.000222591
-2.26731e-07
0.00023367
-3.40884e-07
0.000233791
0.000233763
-4.5287e-07
-1.20246e-07
0.000222711
-2.45304e-07
0.000233795
-3.68767e-07
0.000233914
0.000233884
-4.89907e-07
-1.30132e-07
0.000222841
-2.65426e-07
0.00023393
-3.98994e-07
0.000234048
0.000234015
-5.30042e-07
-1.40861e-07
0.000222982
-2.87234e-07
0.000234076
-4.31755e-07
0.000234192
0.000234157
-5.73543e-07
-1.52489e-07
0.000223134
-3.10874e-07
0.000234235
-4.67267e-07
0.000234349
0.00023431
-6.20686e-07
-1.65086e-07
0.000223299
-3.36489e-07
0.000234406
-5.05751e-07
0.000234518
0.000234476
-6.71772e-07
-1.78722e-07
0.000223478
-3.64254e-07
0.000234592
-5.47446e-07
0.000234701
0.000234656
-7.27124e-07
-1.93497e-07
0.000223672
-3.94344e-07
0.000234792
-5.92631e-07
0.000234899
0.00023485
-7.87119e-07
-2.09513e-07
0.000223881
-4.2696e-07
0.00023501
-6.41626e-07
0.000235114
0.000235061
-8.52162e-07
-2.26891e-07
0.000224108
-4.62339e-07
0.000235245
-6.94749e-07
0.000235346
0.000235289
-9.22692e-07
-2.4576e-07
0.000224354
-5.00706e-07
0.0002355
-7.52365e-07
0.000235598
0.000235536
-9.99164e-07
-2.66219e-07
0.00022462
-5.42316e-07
0.000235776
-8.14842e-07
0.000235871
0.000235803
-1.08208e-06
-2.88404e-07
0.000224908
-5.87443e-07
0.000236075
-8.826e-07
0.000236166
0.000236092
-1.17201e-06
-3.12465e-07
0.000225221
-6.36401e-07
0.000236399
-9.56102e-07
0.000236486
0.000236406
-1.26956e-06
-3.38574e-07
0.000225559
-6.89527e-07
0.00023675
-1.03587e-06
0.000236832
0.000236745
-1.37541e-06
-3.66933e-07
0.000225926
-7.472e-07
0.000237131
-1.12246e-06
0.000237207
0.000237113
-1.49031e-06
-3.97723e-07
0.000226324
-8.09826e-07
0.000237543
-1.21646e-06
0.000237614
0.000237512
-1.61503e-06
-4.31166e-07
0.000226755
-8.7783e-07
0.000237989
-1.31854e-06
0.000238054
0.000237944
-1.75045e-06
-4.67494e-07
0.000227223
-9.51703e-07
0.000238474
-1.42942e-06
0.000238532
0.000238412
-1.89754e-06
-5.0697e-07
0.00022773
-1.03198e-06
0.000238999
-1.54991e-06
0.00023905
0.000238919
-2.05736e-06
-5.49892e-07
0.00022828
-1.11926e-06
0.000239568
-1.68089e-06
0.000239612
0.000239469
-2.23106e-06
-5.96583e-07
0.000228876
-1.21419e-06
0.000240186
-1.82332e-06
0.000240221
0.000240066
-2.41993e-06
-6.4737e-07
0.000229524
-1.31747e-06
0.000240856
-1.97826e-06
0.000240882
0.000240713
-2.62535e-06
-7.02667e-07
0.000230226
-1.42988e-06
0.000241583
-2.14688e-06
0.000241599
0.000241415
-2.84889e-06
-7.62901e-07
0.000230989
-1.55229e-06
0.000242372
-2.3305e-06
0.000242377
0.000242177
-3.09226e-06
-8.28558e-07
0.000231818
-1.68569e-06
0.000243229
-2.53055e-06
0.000243222
0.000243004
-3.35738e-06
-9.00168e-07
0.000232718
-1.83114e-06
0.00024416
-2.74864e-06
0.000244139
0.000243901
-3.64634e-06
-9.78298e-07
0.000233696
-1.98983e-06
0.000245172
-2.98654e-06
0.000245136
0.000244876
-3.96145e-06
-1.06359e-06
0.00023476
-2.16304e-06
0.000246271
-3.24618e-06
0.000246219
0.000245935
-4.30531e-06
-1.15677e-06
0.000235916
-2.3523e-06
0.000247467
-3.52978e-06
0.000247397
0.000247086
-4.68079e-06
-1.25869e-06
0.000237175
-2.55921e-06
0.000248767
-3.83979e-06
0.000248677
0.000248338
-5.09116e-06
-1.37024e-06
0.000238545
-2.78565e-06
0.000250183
-4.17899e-06
0.00025007
0.000249699
-5.54e-06
-1.49248e-06
0.000240038
-3.03371e-06
0.000251724
-4.55045e-06
0.000251587
0.00025118
-6.03139e-06
-1.62656e-06
0.000241664
-3.30572e-06
0.000253403
-4.95766e-06
0.000253239
0.000252792
-6.56986e-06
-1.7738e-06
0.000243438
-3.60432e-06
0.000255234
-5.40452e-06
0.000255039
0.000254548
-7.16053e-06
-1.93568e-06
0.000245374
-3.93248e-06
0.000257231
-5.89546e-06
0.000257002
0.000256462
-7.80919e-06
-2.11389e-06
0.000247488
-4.29362e-06
0.00025941
-6.43552e-06
0.000259144
0.000258549
-8.52244e-06
-2.31036e-06
0.000249798
-4.6916e-06
0.000261791
-7.03046e-06
0.000261483
0.000260826
-9.30772e-06
-2.52729e-06
0.000252325
-5.13086e-06
0.000264395
-7.68678e-06
0.000264039
0.000263313
-1.01736e-05
-2.76724e-06
0.000255092
-5.61648e-06
0.000267244
-8.412e-06
0.000266834
0.00026603
-1.11297e-05
-3.03311e-06
0.000258126
-6.15431e-06
0.000270365
-9.21474e-06
0.000269895
0.000269003
-1.21873e-05
-3.32833e-06
0.000261454
-6.75114e-06
0.000273788
-1.0105e-05
0.000273249
0.000272257
-1.33593e-05
-3.65686e-06
0.000265111
-7.41486e-06
0.000277546
-1.10944e-05
0.000276928
0.000275823
-1.46607e-05
-4.02331e-06
0.000269134
-8.15465e-06
0.000281678
-1.21963e-05
0.00028097
0.000279736
-1.61088e-05
-4.43307e-06
0.000273567
-8.98128e-06
0.000286226
-1.34265e-05
0.000285415
0.000284033
-1.77239e-05
-4.89256e-06
0.00027846
-9.90745e-06
0.000291241
-1.48036e-05
0.000290311
0.00028876
-1.95298e-05
-5.40943e-06
0.000283869
-1.09483e-05
0.00029678
-1.63496e-05
0.000295713
0.000293965
-2.15545e-05
-5.99278e-06
0.000289862
-1.21217e-05
0.000302908
-1.80905e-05
0.000301682
0.000299705
-2.38313e-05
-6.65353e-06
0.000296515
-1.34492e-05
0.000309704
-2.00576e-05
0.00030829
0.000306048
-2.63998e-05
-7.40494e-06
0.00030392
-1.49569e-05
0.000317256
-2.22884e-05
0.000315621
0.000313067
-2.93075e-05
-8.2632e-06
0.000312183
-1.66765e-05
0.000325669
-2.48286e-05
0.000323774
0.00032085
-3.26117e-05
-9.24823e-06
0.000321432
-1.86468e-05
0.000335068
-2.77338e-05
0.000332861
0.000329498
-3.6382e-05
-1.03847e-05
0.000331816
-2.09158e-05
0.000345599
-3.10724e-05
0.000343017
0.000339129
-4.07035e-05
-1.17034e-05
0.00034352
-2.35432e-05
0.000357439
-3.49292e-05
0.000354403
0.000349881
-4.56812e-05
-1.32433e-05
0.000356763
-2.66042e-05
0.0003708
-3.94104e-05
0.000367209
0.000361916
-5.14452e-05
-1.50543e-05
0.000371817
-3.01944e-05
0.00038594
-4.46501e-05
0.000381665
0.000375424
-5.81587e-05
-1.72006e-05
0.000389018
-3.44366e-05
0.000403176
-5.08192e-05
0.000398048
0.000390633
-6.60277e-05
-1.97661e-05
0.000408784
-3.94902e-05
0.0004229
-5.81382e-05
0.000416695
0.000407809
-7.53151e-05
-2.28621e-05
0.000431646
-4.55651e-05
0.000445603
-6.68943e-05
0.000438025
0.000427274
-8.63593e-05
-2.6638e-05
0.000458284
-5.29413e-05
0.000471906
-7.74669e-05
0.00046255
0.000449408
-9.96009e-05
-3.12972e-05
0.000489581
-6.19972e-05
0.000502607
-9.03633e-05
0.000490916
0.000474664
-0.000115619
-3.71222e-05
0.000526703
-7.32538e-05
0.000538738
-0.000106271
0.000523934
0.000503579
-0.000135186
-4.45089e-05
0.000571212
-8.74368e-05
0.000581666
-0.000126138
0.000562635
0.000536781
-0.00015934
-5.4037e-05
0.000625249
-0.000105588
0.000633217
-0.000151289
0.000608337
0.000574991
-0.000189499
-6.64971e-05
0.000691746
-0.000129178
0.000695898
-0.000183611
0.00066277
0.000619007
-0.000227627
-8.33013e-05
0.000775048
-0.000160515
0.000773111
-0.00022583
0.000728085
0.000669629
-0.000276453
-0.000105725
0.000880773
-0.000202631
0.000870017
-0.000282064
0.000807517
0.000727532
-0.000339967
-0.000138068
0.00101884
-0.000261194
0.000993144
-0.00035819
0.000904513
0.00079292
-0.000423578
-0.000181387
0.00120023
-0.000342478
0.00115423
-0.000464865
0.0010269
0.000864879
-0.000536825
-0.000241873
0.0014421
-0.000458033
0.00137039
-0.000614318
0.00118318
0.000940235
-0.000689673
-0.00034405
0.00178615
-0.000631649
0.00165799
-0.000843026
0.00139456
0.00101735
-0.000920144
-0.000397554
0.0021837
-0.000799043
0.00205948
-0.0011359
0.00173142
0.00111283
-0.00123138
-0.000762723
-0.00139602
-0.00177487
-0.00194212
0.000421301
-0.000343384
0.000560931
8.26551e-05
0.00057159
0.000349893
0.000526743
0.000485197
0.000465134
0.000524441
0.000414519
0.000483585
0.000384585
0.000394003
0.000364729
0.000305057
0.00034715
0.000236483
0.000330667
0.000185741
0.0003157
0.0001477
0.000302416
0.000118613
0.000290786
9.60292e-05
0.000280709
7.82535e-05
0.000272047
6.40965e-05
0.000264649
5.27109e-05
0.000258362
4.34778e-05
0.000253044
3.5936e-05
0.000248564
2.9738e-05
0.000244805
2.46179e-05
0.000241664
2.037e-05
0.000239053
1.68337e-05
0.000236893
1.38814e-05
0.000235118
1.14123e-05
0.000233668
9.34418e-06
0.000232494
7.61119e-06
0.000231553
6.1584e-06
0.000230809
4.94157e-06
0.00023023
3.92312e-06
0.000229788
3.07245e-06
0.000229461
2.36336e-06
0.00022923
1.77402e-06
0.000229077
1.28591e-06
0.000228988
8.83636e-07
0.000228952
5.53454e-07
0.000228958
2.84647e-07
0.000228997
6.74239e-08
0.000229063
-1.06598e-07
0.00022915
-2.44128e-07
0.000229252
-3.5135e-07
0.000229365
-4.3329e-07
0.000229485
-4.93928e-07
0.000229611
-5.37039e-07
0.000229739
-5.6589e-07
0.000229868
-5.82972e-07
0.000229996
-5.904e-07
0.000230122
-5.90105e-07
0.000230245
-5.83672e-07
0.000230365
-5.72417e-07
0.00023048
-5.57465e-07
0.000230591
-5.39739e-07
0.000230698
-5.19979e-07
0.000230799
-4.98801e-07
0.000230895
-4.76739e-07
0.000230987
-4.54222e-07
0.000231073
-4.31586e-07
0.000231155
-4.09086e-07
0.000231232
-3.86935e-07
0.000231305
-3.65319e-07
0.000231373
-3.44364e-07
0.000231437
-3.24168e-07
0.000231498
-3.04793e-07
0.000231554
-2.86283e-07
0.000231607
-2.68671e-07
0.000231657
-2.51967e-07
0.000231703
-2.36162e-07
0.000231746
-2.2124e-07
0.000231787
-2.07192e-07
0.000231825
-1.94021e-07
0.000231861
-1.81692e-07
0.000231894
-1.70174e-07
0.000231925
-1.59439e-07
0.000231954
-1.49451e-07
0.000231982
-1.40195e-07
0.000232007
-1.31627e-07
0.000232031
-1.23719e-07
0.000232054
-1.16425e-07
0.000232075
-1.09736e-07
0.000232096
-1.03633e-07
0.000232115
-9.80751e-08
0.000232133
-9.30444e-08
0.00023215
-8.85109e-08
0.000232167
-8.44655e-08
0.000232182
-8.08867e-08
0.000232198
-7.7764e-08
0.000232212
-7.50805e-08
0.000232226
-7.28188e-08
0.00023224
-7.09723e-08
0.000232254
-6.95317e-08
0.000232267
-6.84977e-08
0.00023228
-6.78617e-08
0.000232294
-6.76187e-08
0.000232307
-6.77693e-08
0.00023232
-6.83295e-08
0.000232334
-6.92963e-08
0.000232347
-7.0686e-08
0.000232362
-7.24859e-08
0.000232376
-7.47267e-08
0.000232391
-7.74102e-08
0.000232407
-8.05649e-08
0.000232423
-8.42175e-08
0.000232441
-8.83825e-08
0.000232459
-9.309e-08
0.000232478
-9.83656e-08
0.000232498
-1.04236e-07
0.00023252
-1.10754e-07
0.000232543
-1.17952e-07
0.000232567
-1.25881e-07
0.000232593
-1.34588e-07
0.000232622
-1.44131e-07
0.000232652
-1.54568e-07
0.000232684
-1.6596e-07
0.000232719
-1.78374e-07
0.000232756
-1.919e-07
0.000232796
-2.06609e-07
0.000232839
-2.22611e-07
0.000232886
-2.40002e-07
0.000232937
-2.58887e-07
0.000232991
-2.79397e-07
0.000233049
-3.01637e-07
0.000233113
-3.25749e-07
0.000233181
-3.51903e-07
0.000233255
-3.80268e-07
0.000233335
-4.11018e-07
0.000233421
-4.44351e-07
0.000233515
-4.80466e-07
0.000233615
-5.19598e-07
0.000233725
-5.61998e-07
0.000233843
-6.07942e-07
0.00023397
-6.57735e-07
0.000234108
-7.11697e-07
0.000234258
-7.70166e-07
0.00023442
-8.33518e-07
0.000234595
-9.02167e-07
0.000234784
-9.76577e-07
0.000234989
-1.05724e-06
0.000235211
-1.14469e-06
0.000235452
-1.2395e-06
0.000235712
-1.3423e-06
0.000235994
-1.45378e-06
0.000236299
-1.57472e-06
0.000236629
-1.70593e-06
0.000236987
-1.84833e-06
0.000237375
-2.00289e-06
0.000237795
-2.17069e-06
0.000238251
-2.35293e-06
0.000238744
-2.55091e-06
0.000239279
-2.76606e-06
0.000239859
-2.99996e-06
0.000240488
-3.25431e-06
0.00024117
-3.53105e-06
0.000241911
-3.83228e-06
0.000242713
-4.16036e-06
0.000243585
-4.51784e-06
0.000244531
-4.90758e-06
0.000245559
-5.33274e-06
0.000246675
-5.79688e-06
0.000247887
-6.30397e-06
0.000249206
-6.85841e-06
0.00025064
-7.46515e-06
0.000252199
-8.12972e-06
0.000253897
-8.85836e-06
0.000255746
-9.65816e-06
0.000257761
-1.05371e-05
0.000259957
-1.15041e-05
0.000262353
-1.25697e-05
0.000264969
-1.37454e-05
0.000267827
-1.50449e-05
0.000270951
-1.64837e-05
0.00027437
-1.80796e-05
0.000278114
-1.98534e-05
0.00028222
-2.18293e-05
0.000286726
-2.40356e-05
0.000291676
-2.65054e-05
0.000297123
-2.92779e-05
0.000303123
-3.23995e-05
0.000309741
-3.59258e-05
0.000317053
-3.99232e-05
0.000325142
-4.44719e-05
0.000334108
-4.96693e-05
0.000344062
-5.56347e-05
0.000355131
-6.25144e-05
0.000367462
-7.04901e-05
0.000381223
-7.97886e-05
0.000396603
-9.06954e-05
0.000413816
-0.000103572
0.000433098
-0.000118882
0.000454699
-0.000137221
0.000478877
-0.000159364
0.000505861
-0.000186325
0.000535804
-0.000219442
0.000568671
-0.000260493
0.000604063
-0.000311845
0.000640775
-0.000376679
0.000676406
-0.000459209
0.000704746
-0.000565165
0.000716337
-0.000701264
0.00067417
-0.000877977
0.000536116
-0.00109333
-0.001406
-2.63955e-05
-0.000316988
2.52066e-05
3.10531e-05
8.79065e-05
0.000287195
0.000145499
0.000427606
0.000198133
0.000471807
0.000245176
0.000436542
0.000276608
0.000362571
0.000290689
0.000290976
0.000293727
0.000233444
0.000290998
0.000188471
0.000285584
0.000153114
0.000279125
0.000125072
0.000272506
0.000102649
0.000266188
8.45715e-05
0.000260395
6.98896e-05
0.000255217
5.78888e-05
0.00025067
4.80244e-05
0.000246731
3.98753e-05
0.000243354
3.31146e-05
0.000240487
2.74854e-05
0.000238073
2.27843e-05
0.000236057
1.88494e-05
0.000234389
1.55498e-05
0.000233021
1.27802e-05
0.000231911
1.04539e-05
0.000231022
8.50019e-06
0.000230321
6.85991e-06
0.000229778
5.48453e-06
0.000229368
4.33279e-06
0.00022907
3.37056e-06
0.000228864
2.56886e-06
0.000228735
1.90293e-06
0.000228669
1.35218e-06
0.000228654
8.98875e-07
0.000228679
5.27888e-07
0.000228737
2.26697e-07
0.000228821
-1.60397e-08
0.000228924
-2.09496e-07
0.000229041
-3.61374e-07
0.000229168
-4.78767e-07
0.000229303
-5.67528e-07
0.000229441
-6.32361e-07
0.000229581
-6.7734e-07
0.000229722
-7.06039e-07
0.00022986
-7.2149e-07
0.000229996
-7.26228e-07
0.000230128
-7.22388e-07
0.000230256
-7.11745e-07
0.00023038
-6.95798e-07
0.000230498
-6.75801e-07
0.000230611
-6.52794e-07
0.000230719
-6.27639e-07
0.000230821
-6.0105e-07
0.000230918
-5.73617e-07
0.000231009
-5.45815e-07
0.000231096
-5.18011e-07
0.000231177
-4.90507e-07
0.000231254
-4.63548e-07
0.000231326
-4.37334e-07
0.000231393
-4.11962e-07
0.000231457
-3.87533e-07
0.000231516
-3.64135e-07
0.000231572
-3.41831e-07
0.000231624
-3.20636e-07
0.000231672
-3.0055e-07
0.000231718
-2.81581e-07
0.00023176
-2.63715e-07
0.0002318
-2.46927e-07
0.000231837
-2.31171e-07
0.000231872
-2.16422e-07
0.000231904
-2.0265e-07
0.000231935
-1.89828e-07
0.000231963
-1.77909e-07
0.00023199
-1.66848e-07
0.000232015
-1.56619e-07
0.000232038
-1.47176e-07
0.00023206
-1.38497e-07
0.000232081
-1.30531e-07
0.000232101
-1.23253e-07
0.000232119
-1.16631e-07
0.000232137
-1.10643e-07
0.000232154
-1.05249e-07
0.000232169
-1.00431e-07
0.000232185
-9.61716e-08
0.000232199
-9.24553e-08
0.000232214
-8.92615e-08
0.000232227
-8.65715e-08
0.000232241
-8.43789e-08
0.000232254
-8.26616e-08
0.000232267
-8.14304e-08
0.00023228
-8.06722e-08
0.000232292
-8.03867e-08
0.000232305
-8.05712e-08
0.000232318
-8.12312e-08
0.000232331
-8.23883e-08
0.000232345
-8.40322e-08
0.000232358
-8.61808e-08
0.000232372
-8.8833e-08
0.000232387
-9.20184e-08
0.000232402
-9.57727e-08
0.000232418
-1.00108e-07
0.000232435
-1.05065e-07
0.000232452
-1.10657e-07
0.000232471
-1.1692e-07
0.000232491
-1.23901e-07
0.000232511
-1.31642e-07
0.000232534
-1.40199e-07
0.000232557
-1.49617e-07
0.000232583
-1.59963e-07
0.00023261
-1.71297e-07
0.000232639
-1.83693e-07
0.00023267
-1.9722e-07
0.000232704
-2.11971e-07
0.00023274
-2.28033e-07
0.000232779
-2.45514e-07
0.000232821
-2.64523e-07
0.000232866
-2.85177e-07
0.000232915
-3.0761e-07
0.000232967
-3.31965e-07
0.000233024
-3.58382e-07
0.000233085
-3.87019e-07
0.000233152
-4.18082e-07
0.000233223
-4.51775e-07
0.0002333
-4.88302e-07
0.000233384
-5.2788e-07
0.000233474
-5.70766e-07
0.000233572
-6.17235e-07
0.000233677
-6.67586e-07
0.000233792
-7.22146e-07
0.000233915
-7.81269e-07
0.000234049
-8.45334e-07
0.000234193
-9.14743e-07
0.00023435
-9.89951e-07
0.000234519
-1.07145e-06
0.000234702
-1.15979e-06
0.000234901
-1.25554e-06
0.000235115
-1.35933e-06
0.000235348
-1.47184e-06
0.000235599
-1.59383e-06
0.000235871
-1.72612e-06
0.000236166
-1.8696e-06
0.000236486
-2.02527e-06
0.000236831
-2.19418e-06
0.000237206
-2.3775e-06
0.000237612
-2.57649e-06
0.000238052
-2.79257e-06
0.000238528
-3.02729e-06
0.000239044
-3.28231e-06
0.000239604
-3.55948e-06
0.00024021
-3.86086e-06
0.000240868
-4.18868e-06
0.000241581
-4.54546e-06
0.000242355
-4.93389e-06
0.000243194
-5.35703e-06
0.000244104
-5.81819e-06
0.000245093
-6.32111e-06
0.000246166
-6.86995e-06
0.000247331
-7.46933e-06
0.000248597
-8.12439e-06
0.000249973
-8.8409e-06
0.000251468
-9.6253e-06
0.000253095
-1.04848e-05
0.000254864
-1.14277e-05
0.000256791
-1.24632e-05
0.000258888
-1.36017e-05
0.000261174
-1.4855e-05
0.000263665
-1.62368e-05
0.000266383
-1.77626e-05
0.000269349
-1.945e-05
0.000272589
-2.13194e-05
0.00027613
-2.33945e-05
0.000280003
-2.57027e-05
0.000284244
-2.82758e-05
0.000288889
-3.1151e-05
0.000293983
-3.43721e-05
0.000299575
-3.79907e-05
0.000305717
-4.2068e-05
0.000312471
-4.6677e-05
0.000319904
-5.19049e-05
0.000328091
-5.78568e-05
0.000337117
-6.46602e-05
0.000347072
-7.24698e-05
0.000358057
-8.14755e-05
0.00037018
-9.19109e-05
0.000383549
-0.000104065
0.000398276
-0.000118299
0.000414456
-0.000135062
0.000432158
-0.000154923
0.000451389
-0.000178595
0.000472048
-0.000206984
0.000493838
-0.000241232
0.000516125
-0.00028278
0.000537707
-0.000333427
0.000556404
-0.000395376
0.00056843
-0.000471235