/*--------------------------------*- C++ -*----------------------------------*\
  =========                 |
  \\      /  F ield         | OpenFOAM: The Open Source CFD Toolbox
   \\    /   O peration     | Website:  https://openfoam.org
    \\  /    A nd           | Version:  dev
     \\/     M anipulation  |
\*---------------------------------------------------------------------------*/
FoamFile
{
    version     2.0;
    format      ascii;
    class       volVectorField;
    location    "4";
    object      U;
}
// * * * * * * * * * * * * * * * * * * * * * * * * * * * * * * * * * * * * * //

dimensions      [0 1 -1 0 0 0 0];

internalField   nonuniform List<vector> 
8000
(
(0.0995496 0.000678812 0)
(0.0997829 0.00211812 0)
(0.0996888 0.00341463 0)
(0.100303 0.00414603 0)
(0.0971472 0.0020742 0)
(0.097762 0.0059066 0)
(0.096019 0.0113891 0)
(0.097212 0.0145939 0)
(0.0921234 0.00350314 0)
(0.0928383 0.00874053 0)
(0.0891036 0.0181316 0)
(0.0886314 0.0243002 0)
(0.0848057 0.00497633 0)
(0.0849579 0.0108799 0)
(0.0802565 0.0220904 0)
(0.0768174 0.0311095 0)
(0.0759956 0.00642345 0)
(0.0751954 0.0125557 0)
(0.0700288 0.0236441 0)
(0.0643025 0.0340754 0)
(0.0657512 0.00725482 0)
(0.0651158 0.0132285 0)
(0.060036 0.0232253 0)
(0.0531722 0.0330091 0)
(0.0560529 0.00673097 0)
(0.0565793 0.0122974 0)
(0.0518627 0.0209351 0)
(0.044914 0.0287202 0)
(0.0478923 0.00514974 0)
(0.0491286 0.0101113 0)
(0.045205 0.0173429 0)
(0.0395193 0.022928 0)
(0.0416169 0.00356987 0)
(0.043031 0.00783321 0)
(0.04007 0.0136115 0)
(0.0358465 0.0176156 0)
(0.0369709 0.0024921 0)
(0.0382542 0.00605308 0)
(0.0361131 0.0104917 0)
(0.0329789 0.0135463 0)
(0.0334108 0.00182618 0)
(0.034545 0.00474211 0)
(0.0330038 0.00812829 0)
(0.0306545 0.0105599 0)
(0.030606 0.00139207 0)
(0.0316568 0.00375753 0)
(0.0305339 0.00637151 0)
(0.0287568 0.0083369 0)
(0.0283741 0.00108352 0)
(0.0293878 0.00300122 0)
(0.0285556 0.0050491 0)
(0.0271941 0.00665037 0)
(0.0265862 0.000853152 0)
(0.0275849 0.00241396 0)
(0.0269571 0.00403729 0)
(0.0259013 0.00535135 0)
(0.0251451 0.000677821 0)
(0.0261377 0.0019539 0)
(0.0256564 0.00325317 0)
(0.0248284 0.00433715 0)
(0.0239773 0.000542832 0)
(0.0249666 0.0015901 0)
(0.0245922 0.00263856 0)
(0.0239361 0.00353571 0)
(0.0230264 0.000437747 0)
(0.0240129 0.00129986 0)
(0.0237179 0.00215153 0)
(0.023193 0.0028956 0)
(0.022249 0.000355036 0)
(0.0232324 0.00106639 0)
(0.0229974 0.00176172 0)
(0.0225741 0.00237955 0)
(0.0216114 0.00028925 0)
(0.0225913 0.000877185 0)
(0.0224023 0.00144697 0)
(0.0220585 0.00196017 0)
(0.0210872 0.000236426 0)
(0.0220634 0.000722788 0)
(0.0219103 0.0011909 0)
(0.0216294 0.00161701 0)
(0.0206557 0.000193684 0)
(0.0216281 0.00059605 0)
(0.0215035 0.000981202 0)
(0.0212727 0.00133459 0)
(0.0203002 0.000158844 0)
(0.0212689 0.00049148 0)
(0.0211672 0.000808532 0)
(0.0209768 0.00110102 0)
(0.0200074 0.00013026 0)
(0.0209727 0.000404831 0)
(0.0208897 0.00066568 0)
(0.020732 0.000907104 0)
(0.0197668 0.000106694 0)
(0.0207288 0.000332813 0)
(0.0206612 0.000547076 0)
(0.0205302 0.000745654 0)
(0.0195693 8.71938e-05 0)
(0.0205285 0.000272809 0)
(0.0204736 0.000448314 0)
(0.0203646 0.000610929 0)
(0.0194078 7.10057e-05 0)
(0.0203644 0.000222734 0)
(0.0203203 0.000365915 0)
(0.0202294 0.000498359 0)
(0.0192764 5.75299e-05 0)
(0.0202308 0.000180894 0)
(0.0201956 0.000297069 0)
(0.0201198 0.000404199 0)
(0.0191701 4.62958e-05 0)
(0.0201226 0.00014592 0)
(0.020095 0.000239525 0)
(0.0200318 0.000325454 0)
(0.0190847 3.69294e-05 0)
(0.0200356 0.000116698 0)
(0.0200145 0.000191433 0)
(0.0199617 0.000259619 0)
(0.0190169 2.91206e-05 0)
(0.0199664 9.22993e-05 0)
(0.0199507 0.000151275 0)
(0.0199068 0.000204654 0)
(0.0189636 2.26253e-05 0)
(0.0199121 7.19723e-05 0)
(0.019901 0.000117809 0)
(0.0198645 0.000158849 0)
(0.0189225 1.72316e-05 0)
(0.0198701 5.50534e-05 0)
(0.0198629 8.99476e-05 0)
(0.0198326 0.000120752 0)
(0.0188915 1.27618e-05 0)
(0.0198385 4.1039e-05 0)
(0.0198346 6.68634e-05 0)
(0.0198095 8.91735e-05 0)
(0.0188688 9.05974e-06 0)
(0.0198153 2.94283e-05 0)
(0.0198142 4.77577e-05 0)
(0.0197936 6.30821e-05 0)
(0.0188531 6.02037e-06 0)
(0.0197991 1.98846e-05 0)
(0.0198004 3.20537e-05 0)
(0.0197835 4.16449e-05 0)
(0.018843 3.5321e-06 0)
(0.0197888 1.20751e-05 0)
(0.019792 1.91947e-05 0)
(0.0197783 2.4118e-05 0)
(0.0188375 1.51844e-06 0)
(0.0197831 5.7158e-06 0)
(0.019788 8.7593e-06 0)
(0.019777 9.91106e-06 0)
(0.0188358 -1.00136e-07 0)
(0.0197812 6.06134e-07 0)
(0.0197876 3.47843e-07 0)
(0.0197787 -1.5112e-06 0)
(0.018837 -1.37021e-06 0)
(0.0197824 -3.46611e-06 0)
(0.0197899 -6.36117e-06 0)
(0.019783 -1.06017e-05 0)
(0.0188406 -2.38351e-06 0)
(0.019786 -6.68612e-06 0)
(0.0197945 -1.16303e-05 0)
(0.0197891 -1.77517e-05 0)
(0.018846 -3.17082e-06 0)
(0.0197915 -9.19047e-06 0)
(0.0198009 -1.57296e-05 0)
(0.0197968 -2.3272e-05 0)
(0.0188529 -3.75635e-06 0)
(0.0197984 -1.10962e-05 0)
(0.0198085 -1.88412e-05 0)
(0.0198055 -2.74103e-05 0)
(0.0188609 -4.17934e-06 0)
(0.0198064 -1.24912e-05 0)
(0.0198171 -2.11183e-05 0)
(0.019815 -3.04218e-05 0)
(0.0188696 -4.4847e-06 0)
(0.0198153 -1.34683e-05 0)
(0.0198264 -2.27106e-05 0)
(0.0198251 -3.25268e-05 0)
(0.0188788 -4.689e-06 0)
(0.0198246 -1.41068e-05 0)
(0.0198361 -2.37364e-05 0)
(0.0198354 -3.38624e-05 0)
(0.0188883 -4.78733e-06 0)
(0.0198343 -1.44709e-05 0)
(0.0198461 -2.43003e-05 0)
(0.0198459 -3.45552e-05 0)
(0.018898 -4.80498e-06 0)
(0.0198441 -1.46131e-05 0)
(0.0198562 -2.45002e-05 0)
(0.0198564 -3.47444e-05 0)
(0.0189077 -4.77365e-06 0)
(0.0198539 -1.45704e-05 0)
(0.0198663 -2.44079e-05 0)
(0.0198667 -3.45359e-05 0)
(0.0189173 -4.7054e-06 0)
(0.0198637 -1.43797e-05 0)
(0.0198762 -2.40741e-05 0)
(0.0198769 -3.4005e-05 0)
(0.0189268 -4.60395e-06 0)
(0.0198733 -1.40792e-05 0)
(0.0198859 -2.35524e-05 0)
(0.0198868 -3.32259e-05 0)
(0.018936 -4.47204e-06 0)
(0.0198827 -1.36946e-05 0)
(0.0198954 -2.2892e-05 0)
(0.0198964 -3.22618e-05 0)
(0.0189449 -4.31507e-06 0)
(0.0198917 -1.32435e-05 0)
(0.0199045 -2.21281e-05 0)
(0.0199057 -3.11564e-05 0)
(0.0189535 -4.14216e-06 0)
(0.0199005 -1.27446e-05 0)
(0.0199133 -2.12894e-05 0)
(0.0199146 -2.99476e-05 0)
(0.0189618 -3.96231e-06 0)
(0.0199089 -1.2216e-05 0)
(0.0199218 -2.04007e-05 0)
(0.019923 -2.86726e-05 0)
(0.0189697 -3.78011e-06 0)
(0.0199169 -1.16682e-05 0)
(0.0199298 -1.9481e-05 0)
(0.0199311 -2.73616e-05 0)
(0.0189773 -3.59595e-06 0)
(0.0199246 -1.11096e-05 0)
(0.0199375 -1.85454e-05 0)
(0.0199388 -2.60356e-05 0)
(0.0189844 -3.41103e-06 0)
(0.0199319 -1.05491e-05 0)
(0.0199448 -1.76083e-05 0)
(0.0199461 -2.47085e-05 0)
(0.0189912 -3.22646e-06 0)
(0.0199388 -9.99488e-06 0)
(0.0199517 -1.66807e-05 0)
(0.019953 -2.33947e-05 0)
(0.0189976 -3.04499e-06 0)
(0.0199454 -9.45218e-06 0)
(0.0199582 -1.57707e-05 0)
(0.0199595 -2.21075e-05 0)
(0.0190037 -2.86856e-06 0)
(0.0199515 -8.92234e-06 0)
(0.0199644 -1.4884e-05 0)
(0.0199656 -2.08575e-05 0)
(0.0190094 -2.6981e-06 0)
(0.0199574 -8.4084e-06 0)
(0.0199702 -1.40257e-05 0)
(0.0199714 -1.96499e-05 0)
(0.0190148 -2.53499e-06 0)
(0.0199629 -7.9136e-06 0)
(0.0199757 -1.31991e-05 0)
(0.0199768 -1.84887e-05 0)
(0.0190199 -2.3801e-06 0)
(0.019968 -7.44141e-06 0)
(0.0199808 -1.24054e-05 0)
(0.0199819 -1.73775e-05 0)
(0.0190246 -2.23309e-06 0)
(0.0199729 -6.99141e-06 0)
(0.0199856 -1.16464e-05 0)
(0.0199867 -1.63196e-05 0)
(0.0190291 -2.09281e-06 0)
(0.0199775 -6.56285e-06 0)
(0.0199902 -1.09245e-05 0)
(0.0199912 -1.53148e-05 0)
(0.0190333 -1.95785e-06 0)
(0.0199817 -6.15618e-06 0)
(0.0199944 -1.02417e-05 0)
(0.0199954 -1.4361e-05 0)
(0.0190372 -1.82979e-06 0)
(0.0199858 -5.77197e-06 0)
(0.0199984 -9.59789e-06 0)
(0.0199993 -1.34588e-05 0)
(0.0190409 -1.71051e-06 0)
(0.0199895 -5.41021e-06 0)
(0.0200021 -8.99134e-06 0)
(0.020003 -1.26089e-05 0)
(0.0190443 -1.59931e-06 0)
(0.019993 -5.06858e-06 0)
(0.0200056 -8.42179e-06 0)
(0.0200064 -1.18114e-05 0)
(0.0190475 -1.49498e-06 0)
(0.0199964 -4.74729e-06 0)
(0.0200089 -7.88956e-06 0)
(0.0200097 -1.10639e-05 0)
(0.0190505 -1.3978e-06 0)
(0.0199995 -4.44782e-06 0)
(0.020012 -7.39261e-06 0)
(0.0200127 -1.03642e-05 0)
(0.0190534 -1.3075e-06 0)
(0.0200024 -4.16893e-06 0)
(0.0200149 -6.92844e-06 0)
(0.0200155 -9.71214e-06 0)
(0.019056 -1.22314e-06 0)
(0.0200051 -3.90852e-06 0)
(0.0200176 -6.49541e-06 0)
(0.0200182 -9.10704e-06 0)
(0.0190585 -1.14293e-06 0)
(0.0200076 -3.66556e-06 0)
(0.0200201 -6.09413e-06 0)
(0.0200207 -8.54564e-06 0)
(0.0190608 -1.06764e-06 0)
(0.02001 -3.44095e-06 0)
(0.0200225 -5.72327e-06 0)
(0.020023 -8.02469e-06 0)
(0.019063 -9.99201e-07 0)
(0.0200123 -3.2351e-06 0)
(0.0200247 -5.38023e-06 0)
(0.0200252 -7.54223e-06 0)
(0.019065 -9.38145e-07 0)
(0.0200144 -3.04582e-06 0)
(0.0200268 -5.06224e-06 0)
(0.0200273 -7.09819e-06 0)
(0.019067 -8.82438e-07 0)
(0.0200164 -2.87037e-06 0)
(0.0200288 -4.76916e-06 0)
(0.0200292 -6.69221e-06 0)
(0.0190688 -8.30435e-07 0)
(0.0200183 -2.70867e-06 0)
(0.0200306 -4.50234e-06 0)
(0.0200311 -6.32128e-06 0)
(0.0190705 -7.82535e-07 0)
(0.0200201 -2.562e-06 0)
(0.0200324 -4.26136e-06 0)
(0.0200328 -5.98352e-06 0)
(0.0190721 -7.40199e-07 0)
(0.0200218 -2.43068e-06 0)
(0.0200341 -4.04305e-06 0)
(0.0200345 -5.67666e-06 0)
(0.0190737 -7.0255e-07 0)
(0.0200234 -2.31235e-06 0)
(0.0200357 -3.84548e-06 0)
(0.020036 -5.40032e-06 0)
(0.0190751 -6.68208e-07 0)
(0.0200249 -2.20519e-06 0)
(0.0200372 -3.66871e-06 0)
(0.0200375 -5.15409e-06 0)
(0.0190765 -6.36566e-07 0)
(0.0200264 -2.10946e-06 0)
(0.0200386 -3.51343e-06 0)
(0.0200389 -4.93696e-06 0)
(0.0190779 -6.0868e-07 0)
(0.0200278 -2.02651e-06 0)
(0.02004 -3.37881e-06 0)
(0.0200403 -4.74627e-06 0)
(0.0190792 -5.85885e-07 0)
(0.0200291 -1.95649e-06 0)
(0.0200414 -3.2627e-06 0)
(0.0200416 -4.58129e-06 0)
(0.0190804 -5.67524e-07 0)
(0.0200305 -1.89717e-06 0)
(0.0200427 -3.16331e-06 0)
(0.0200429 -4.44284e-06 0)
(0.0190816 -5.52681e-07 0)
(0.0200317 -1.84765e-06 0)
(0.0200439 -3.08151e-06 0)
(0.0200441 -4.33038e-06 0)
(0.0190828 -5.405e-07 0)
(0.020033 -1.80817e-06 0)
(0.0200452 -3.01811e-06 0)
(0.0200453 -4.24305e-06 0)
(0.019084 -5.31711e-07 0)
(0.0200342 -1.78005e-06 0)
(0.0200464 -2.97333e-06 0)
(0.0200465 -4.17967e-06 0)
(0.0190851 -5.26647e-07 0)
(0.0200354 -1.7631e-06 0)
(0.0200476 -2.94544e-06 0)
(0.0200477 -4.13998e-06 0)
(0.0190863 -5.25225e-07 0)
(0.0200366 -1.75591e-06 0)
(0.0200488 -2.93386e-06 0)
(0.0200489 -4.12496e-06 0)
(0.0190874 -5.25789e-07 0)
(0.0200378 -1.7579e-06 0)
(0.02005 -2.93988e-06 0)
(0.02005 -4.13504e-06 0)
(0.0190885 -5.28955e-07 0)
(0.0200391 -1.77063e-06 0)
(0.0200512 -2.96491e-06 0)
(0.0200512 -4.16966e-06 0)
(0.0190897 -5.36298e-07 0)
(0.0200403 -1.79548e-06 0)
(0.0200524 -3.00845e-06 0)
(0.0200524 -4.22847e-06 0)
(0.0190909 -5.48513e-07 0)
(0.0200415 -1.8325e-06 0)
(0.0200536 -3.06926e-06 0)
(0.0200536 -4.31135e-06 0)
(0.019092 -5.6509e-07 0)
(0.0200428 -1.8798e-06 0)
(0.0200549 -3.14635e-06 0)
(0.0200548 -4.41999e-06 0)
(0.0190933 -5.84518e-07 0)
(0.0200441 -1.93668e-06 0)
(0.0200562 -3.24154e-06 0)
(0.0200561 -4.55624e-06 0)
(0.0190946 -6.06408e-07 0)
(0.0200455 -2.0047e-06 0)
(0.0200575 -3.3577e-06 0)
(0.0200574 -4.72113e-06 0)
(0.0190959 -6.31008e-07 0)
(0.0200469 -2.08553e-06 0)
(0.0200589 -3.49666e-06 0)
(0.0200588 -4.91438e-06 0)
(0.0190973 -6.61417e-07 0)
(0.0200483 -2.18099e-06 0)
(0.0200603 -3.65674e-06 0)
(0.0200602 -5.13655e-06 0)
(0.0190987 -6.97053e-07 0)
(0.0200499 -2.29024e-06 0)
(0.0200618 -3.83788e-06 0)
(0.0200617 -5.3892e-06 0)
(0.0191002 -7.37036e-07 0)
(0.0200515 -2.41233e-06 0)
(0.0200634 -4.04124e-06 0)
(0.0200633 -5.67539e-06 0)
(0.0191018 -7.80279e-07 0)
(0.0200532 -2.54778e-06 0)
(0.0200651 -4.27013e-06 0)
(0.0200649 -5.9981e-06 0)
(0.0191035 -8.27178e-07 0)
(0.020055 -2.69906e-06 0)
(0.0200669 -4.52769e-06 0)
(0.0200667 -6.35862e-06 0)
(0.0191054 -8.79507e-07 0)
(0.0200569 -2.86872e-06 0)
(0.0200688 -4.81465e-06 0)
(0.0200685 -6.75737e-06 0)
(0.0191073 -9.39188e-07 0)
(0.0200589 -3.05785e-06 0)
(0.0200708 -5.13066e-06 0)
(0.0200705 -7.1962e-06 0)
(0.0191093 -1.00582e-06 0)
(0.0200611 -3.26557e-06 0)
(0.0200729 -5.47626e-06 0)
(0.0200726 -7.67829e-06 0)
(0.0191115 -1.07844e-06 0)
(0.0200634 -3.49187e-06 0)
(0.0200752 -5.85402e-06 0)
(0.0200748 -8.20814e-06 0)
(0.0191139 -1.15632e-06 0)
(0.0200659 -3.73847e-06 0)
(0.0200777 -6.26876e-06 0)
(0.0200772 -8.79023e-06 0)
(0.0191164 -1.24031e-06 0)
(0.0200685 -4.0084e-06 0)
(0.0200803 -6.72457e-06 0)
(0.0200798 -9.42807e-06 0)
(0.0191191 -1.33285e-06 0)
(0.0200714 -4.30536e-06 0)
(0.0200831 -7.22406e-06 0)
(0.0200826 -1.01244e-05 0)
(0.019122 -1.43617e-06 0)
(0.0200744 -4.6311e-06 0)
(0.0200861 -7.76772e-06 0)
(0.0200855 -1.08824e-05 0)
(0.0191252 -1.55006e-06 0)
(0.0200777 -4.98553e-06 0)
(0.0200894 -8.35759e-06 0)
(0.0200887 -1.17069e-05 0)
(0.0191285 -1.67374e-06 0)
(0.0200813 -5.36968e-06 0)
(0.0200929 -8.99722e-06 0)
(0.0200921 -1.26038e-05 0)
(0.0191322 -1.80622e-06 0)
(0.0200851 -5.78516e-06 0)
(0.0200966 -9.69318e-06 0)
(0.0200958 -1.35803e-05 0)
(0.0191361 -1.94755e-06 0)
(0.0200892 -6.23606e-06 0)
(0.0201007 -1.0452e-05 0)
(0.0200998 -1.46427e-05 0)
(0.0191403 -2.10069e-06 0)
(0.0200936 -6.72764e-06 0)
(0.0201051 -1.12787e-05 0)
(0.0201041 -1.57969e-05 0)
(0.0191449 -2.26851e-06 0)
(0.0200984 -7.26331e-06 0)
(0.0201098 -1.2177e-05 0)
(0.0201087 -1.70499e-05 0)
(0.0191498 -2.45314e-06 0)
(0.0201035 -7.84608e-06 0)
(0.0201149 -1.31501e-05 0)
(0.0201137 -1.84078e-05 0)
(0.0191552 -2.65407e-06 0)
(0.0201091 -8.47701e-06 0)
(0.0201204 -1.42024e-05 0)
(0.0201191 -1.98788e-05 0)
(0.0191609 -2.87161e-06 0)
(0.0201151 -9.15922e-06 0)
(0.0201263 -1.53419e-05 0)
(0.0201249 -2.14744e-05 0)
(0.0191671 -3.10598e-06 0)
(0.0201216 -9.89816e-06 0)
(0.0201327 -1.65787e-05 0)
(0.0201312 -2.32056e-05 0)
(0.0191739 -3.35937e-06 0)
(0.0201286 -1.06994e-05 0)
(0.0201396 -1.79208e-05 0)
(0.020138 -2.5083e-05 0)
(0.0191812 -3.63387e-06 0)
(0.0201362 -1.1569e-05 0)
(0.0201471 -1.93768e-05 0)
(0.0201454 -2.7118e-05 0)
(0.019189 -3.93263e-06 0)
(0.0201444 -1.25123e-05 0)
(0.0201552 -2.09545e-05 0)
(0.0201533 -2.93233e-05 0)
(0.0191976 -4.25792e-06 0)
(0.0201533 -1.35352e-05 0)
(0.020164 -2.26633e-05 0)
(0.0201619 -3.17127e-05 0)
(0.0192068 -4.61032e-06 0)
(0.0201629 -1.46424e-05 0)
(0.0201735 -2.45139e-05 0)
(0.0201712 -3.43018e-05 0)
(0.0192167 -4.98999e-06 0)
(0.0201732 -1.58406e-05 0)
(0.0201837 -2.65195e-05 0)
(0.0201813 -3.71076e-05 0)
(0.0192275 -5.39947e-06 0)
(0.0201845 -1.71383e-05 0)
(0.0201948 -2.86948e-05 0)
(0.0201921 -4.01488e-05 0)
(0.0192392 -5.84305e-06 0)
(0.0201966 -1.85458e-05 0)
(0.0202068 -3.10538e-05 0)
(0.0202039 -4.3445e-05 0)
(0.0192519 -6.32524e-06 0)
(0.0202097 -2.00734e-05 0)
(0.0202197 -3.36113e-05 0)
(0.0202166 -4.7017e-05 0)
(0.0192655 -6.85038e-06 0)
(0.0202239 -2.17302e-05 0)
(0.0202338 -3.63814e-05 0)
(0.0202304 -5.0887e-05 0)
(0.0192804 -7.42096e-06 0)
(0.0202393 -2.35256e-05 0)
(0.020249 -3.93811e-05 0)
(0.0202453 -5.50796e-05 0)
(0.0192964 -8.03923e-06 0)
(0.020256 -2.54698e-05 0)
(0.0202654 -4.26306e-05 0)
(0.0202614 -5.96236e-05 0)
(0.0193138 -8.70751e-06 0)
(0.020274 -2.75753e-05 0)
(0.0202832 -4.61539e-05 0)
(0.0202789 -6.4551e-05 0)
(0.0193326 -9.43053e-06 0)
(0.0202935 -2.98584e-05 0)
(0.0203025 -4.99761e-05 0)
(0.0202978 -6.98944e-05 0)
(0.019353 -1.02152e-05 0)
(0.0203147 -3.23361e-05 0)
(0.0203233 -5.41227e-05 0)
(0.0203182 -7.56889e-05 0)
(0.019375 -1.10671e-05 0)
(0.0203376 -3.5024e-05 0)
(0.0203459 -5.86198e-05 0)
(0.0203404 -8.19721e-05 0)
(0.0193989 -1.1992e-05 0)
(0.0203624 -3.79395e-05 0)
(0.0203704 -6.34968e-05 0)
(0.0203644 -8.87864e-05 0)
(0.0194248 -1.29953e-05 0)
(0.0203892 -4.11016e-05 0)
(0.0203969 -6.87872e-05 0)
(0.0203904 -9.61787e-05 0)
(0.0194529 -1.40831e-05 0)
(0.0204183 -4.45323e-05 0)
(0.0204256 -7.45288e-05 0)
(0.0204185 -0.000104201 0)
(0.0194833 -1.52644e-05 0)
(0.0204498 -4.82571e-05 0)
(0.0204567 -8.07619e-05 0)
(0.020449 -0.000112908 0)
(0.0195163 -1.65473e-05 0)
(0.020484 -5.23022e-05 0)
(0.0204904 -8.75301e-05 0)
(0.020482 -0.000122361 0)
(0.019552 -1.79414e-05 0)
(0.020521 -5.66955e-05 0)
(0.0205269 -9.48793e-05 0)
(0.0205178 -0.000132625 0)
(0.0195907 -1.94565e-05 0)
(0.0205611 -6.14679e-05 0)
(0.0205665 -0.000102862 0)
(0.0205566 -0.000143772 0)
(0.0196327 -2.11034e-05 0)
(0.0206046 -6.66539e-05 0)
(0.0206094 -0.000111536 0)
(0.0205987 -0.000155886 0)
(0.0196783 -2.28947e-05 0)
(0.0206518 -7.22921e-05 0)
(0.020656 -0.000120966 0)
(0.0206443 -0.000169053 0)
(0.0197277 -2.48444e-05 0)
(0.0207029 -7.84253e-05 0)
(0.0207064 -0.00013122 0)
(0.0206937 -0.000183371 0)
(0.0197813 -2.69656e-05 0)
(0.0207584 -8.50973e-05 0)
(0.0207611 -0.000142376 0)
(0.0207473 -0.000198946 0)
(0.0198395 -2.92741e-05 0)
(0.0208186 -9.23588e-05 0)
(0.0208205 -0.000154518 0)
(0.0208054 -0.000215895 0)
(0.0199026 -3.17863e-05 0)
(0.020884 -0.000100266 0)
(0.020885 -0.000167742 0)
(0.0208685 -0.000234351 0)
(0.0199712 -3.45228e-05 0)
(0.020955 -0.000108883 0)
(0.0209549 -0.000182153 0)
(0.020937 -0.000254459 0)
(0.0200457 -3.75081e-05 0)
(0.021032 -0.000118281 0)
(0.0210309 -0.000197867 0)
(0.0210113 -0.000276377 0)
(0.0201267 -4.07687e-05 0)
(0.0211157 -0.000128538 0)
(0.0211134 -0.000215009 0)
(0.021092 -0.000300281 0)
(0.0202147 -4.43313e-05 0)
(0.0212067 -0.000139736 0)
(0.021203 -0.000233717 0)
(0.0211797 -0.000326368 0)
(0.0203104 -4.82256e-05 0)
(0.0213056 -0.00015197 0)
(0.0213004 -0.000254152 0)
(0.0212749 -0.000354858 0)
(0.0204145 -5.24851e-05 0)
(0.0214132 -0.000165345 0)
(0.0214063 -0.000276492 0)
(0.0213784 -0.000385999 0)
(0.0205277 -5.71458e-05 0)
(0.0215302 -0.000179983 0)
(0.0215216 -0.000300938 0)
(0.021491 -0.000420068 0)
(0.0206511 -6.22527e-05 0)
(0.0216576 -0.000196021 0)
(0.021647 -0.000327716 0)
(0.0216135 -0.000457373 0)
(0.0207855 -6.78559e-05 0)
(0.0217964 -0.000213611 0)
(0.0217835 -0.000357077 0)
(0.0217468 -0.000498263 0)
(0.020932 -7.40107e-05 0)
(0.0219476 -0.000232922 0)
(0.0219323 -0.000389303 0)
(0.0218919 -0.000543126 0)
(0.0210919 -8.07779e-05 0)
(0.0221125 -0.000254149 0)
(0.0220944 -0.000424716 0)
(0.0220501 -0.000592407 0)
(0.0212663 -8.8228e-05 0)
(0.0222925 -0.000277514 0)
(0.0222713 -0.000463682 0)
(0.0222224 -0.000646608 0)
(0.021457 -9.64435e-05 0)
(0.022489 -0.000303267 0)
(0.0224644 -0.000506618 0)
(0.0224105 -0.000706303 0)
(0.0216654 -0.000105519 0)
(0.0227038 -0.0003317 0)
(0.0226752 -0.000553998 0)
(0.0226157 -0.000772143 0)
(0.0218935 -0.000115562 0)
(0.0229387 -0.000363141 0)
(0.0229058 -0.000606366 0)
(0.02284 -0.000844873 0)
(0.0221434 -0.000126693 0)
(0.0231959 -0.00039797 0)
(0.0231581 -0.000664351 0)
(0.0230851 -0.000925357 0)
(0.0224174 -0.000139055 0)
(0.0234778 -0.000436629 0)
(0.0234344 -0.000728682 0)
(0.0233534 -0.00101459 0)
(0.0227183 -0.000152817 0)
(0.0237871 -0.000479636 0)
(0.0237374 -0.000800205 0)
(0.0236472 -0.00111372 0)
(0.0230491 -0.000168175 0)
(0.0241269 -0.000527592 0)
(0.02407 -0.000879902 0)
(0.0239694 -0.00122409 0)
(0.0234133 -0.00018536 0)
(0.0245007 -0.000581197 0)
(0.0244355 -0.000968922 0)
(0.024323 -0.00134726 0)
(0.023815 -0.000204641 0)
(0.0249126 -0.000641282 0)
(0.0248378 -0.00106863 0)
(0.0247117 -0.00148507 0)
(0.0242586 -0.000226342 0)
(0.0253671 -0.000708838 0)
(0.0252813 -0.00118063 0)
(0.0251394 -0.0016397 0)
(0.0247496 -0.000250849 0)
(0.0258695 -0.000785046 0)
(0.0257709 -0.00130685 0)
(0.0256108 -0.00181373 0)
(0.0252941 -0.000278633 0)
(0.026426 -0.00087132 0)
(0.0263125 -0.00144958 0)
(0.0261312 -0.00201023 0)
(0.0258993 -0.000310256 0)
(0.0270437 -0.000969371 0)
(0.0269127 -0.00161158 0)
(0.0267065 -0.00223293 0)
(0.0265738 -0.000346411 0)
(0.0277309 -0.00108129 0)
(0.0275793 -0.00179624 0)
(0.0273438 -0.0024863 0)
(0.0273275 -0.000387952 0)
(0.0284976 -0.00120964 0)
(0.0283214 -0.00200767 0)
(0.0280513 -0.00277581 0)
(0.0281724 -0.000435941 0)
(0.0293553 -0.0013576 0)
(0.0291496 -0.00225095 0)
(0.0288382 -0.00310816 0)
(0.0291228 -0.000491706 0)
(0.0303179 -0.00152914 0)
(0.0300768 -0.00253241 0)
(0.0297157 -0.00349163 0)
(0.030196 -0.000556935 0)
(0.0314021 -0.00172925 0)
(0.0311178 -0.00285999 0)
(0.0306965 -0.00393659 0)
(0.0314132 -0.00063379 0)
(0.0326281 -0.00196431 0)
(0.0322908 -0.00324374 0)
(0.031796 -0.00445602 0)
(0.0328003 -0.00072507 0)
(0.0340206 -0.00224255 0)
(0.0336174 -0.00369657 0)
(0.033032 -0.00506648 0)
(0.0343897 -0.000834447 0)
(0.0356099 -0.00257468 0)
(0.0351243 -0.00423518 0)
(0.0344259 -0.00578917 0)
(0.0362222 -0.000966809 0)
(0.0374339 -0.00297485 0)
(0.0368437 -0.00488146 0)
(0.036003 -0.00665164 0)
(0.0383495 -0.00112876 0)
(0.0395404 -0.00346205 0)
(0.0388158 -0.00566453 0)
(0.0377936 -0.00768999 0)
(0.0408388 -0.00132933 0)
(0.0419902 -0.00406208 0)
(0.0410904 -0.00662358 0)
(0.039834 -0.00895219 0)
(0.0437779 -0.00158114 0)
(0.0448617 -0.00481066 0)
(0.0437303 -0.00781225 0)
(0.0421671 -0.0105028 0)
(0.0472844 -0.00190197 0)
(0.0482585 -0.00575779 0)
(0.046815 -0.00930497 0)
(0.044844 -0.0124298 0)
(0.0515138 -0.00231817 0)
(0.0523169 -0.00697622 0)
(0.050447 -0.0112074 0)
(0.0479246 -0.014855 0)
(0.0567003 -0.00286527 0)
(0.0572258 -0.00856711 0)
(0.0547561 -0.0136703 0)
(0.0514767 -0.0179501 0)
(0.0630904 -0.00361031 0)
(0.0632345 -0.0107009 0)
(0.0599258 -0.0169187 0)
(0.0555787 -0.0219578 0)
(0.0713554 -0.00460699 0)
(0.070727 -0.0135666 0)
(0.066147 -0.0212822 0)
(0.0602921 -0.0272438 0)
(0.0812799 -0.00604962 0)
(0.0801473 -0.0176411 0)
(0.07389 -0.0272722 0)
(0.065739 -0.0343064 0)
(0.0965116 -0.00812689 0)
(0.0925687 -0.0232267 0)
(0.0831303 -0.0356739 0)
(0.0717133 -0.0440754 0)
(0.110127 -0.0105426 0)
(0.107554 -0.0311344 0)
(0.0961247 -0.0477073 0)
(0.0792187 -0.0575095 0)
(0.145555 -0.0160942 0)
(0.133144 -0.0442183 0)
(0.110345 -0.0656542 0)
(0.0841652 -0.078003 0)
(0.156711 -0.0169999 0)
(0.150379 -0.0524754 0)
(0.13402 -0.0873999 0)
(0.103705 -0.105589 0)
(0.244589 -0.0336839 0)
(0.223761 -0.0976229 0)
(0.175151 -0.147574 0)
(0.100875 -0.167239 0)
(0.0279514 -0.00276125 0)
(0.0471429 0.0134452 0)
(0.0523706 0.030676 0)
(0.0487522 0.0408254 0)
(0.0428797 0.0441388 0)
(0.0369713 0.0412975 0)
(0.0336616 0.0339794 0)
(0.0320489 0.0261681 0)
(0.0306225 0.0200655 0)
(0.0291662 0.0155877 0)
(0.0278251 0.0122841 0)
(0.0266215 0.00979156 0)
(0.0255558 0.00787768 0)
(0.0246263 0.00638616 0)
(0.0238239 0.00520843 0)
(0.023136 0.00426819 0)
(0.0225496 0.00351048 0)
(0.0220523 0.00289488 0)
(0.0216323 0.00239125 0)
(0.0212791 0.0019768 0)
(0.0209834 0.00163406 0)
(0.0207369 0.00134949 0)
(0.0205324 0.00111245 0)
(0.0203637 0.000914561 0)
(0.0202255 0.000749052 0)
(0.0201131 0.000610528 0)
(0.0200225 0.000494497 0)
(0.0199504 0.000397372 0)
(0.0198937 0.000316112 0)
(0.0198501 0.000248251 0)
(0.0198173 0.000191679 0)
(0.0197935 0.000144659 0)
(0.0197771 0.000105694 0)
(0.0197669 7.35498e-05 0)
(0.0197617 4.71483e-05 0)
(0.0197605 2.56358e-05 0)
(0.0197626 8.21182e-06 0)
(0.0197673 -5.78614e-06 0)
(0.0197739 -1.68541e-05 0)
(0.0197821 -2.55061e-05 0)
(0.0197915 -3.21743e-05 0)
(0.0198016 -3.71473e-05 0)
(0.0198123 -4.07013e-05 0)
(0.0198233 -4.31084e-05 0)
(0.0198344 -4.45805e-05 0)
(0.0198455 -4.52862e-05 0)
(0.0198565 -4.53746e-05 0)
(0.0198673 -4.49685e-05 0)
(0.0198778 -4.41706e-05 0)
(0.019888 -4.30719e-05 0)
(0.0198977 -4.17471e-05 0)
(0.0199071 -4.02553e-05 0)
(0.0199161 -3.86458e-05 0)
(0.0199246 -3.69617e-05 0)
(0.0199327 -3.52359e-05 0)
(0.0199404 -3.34955e-05 0)
(0.0199477 -3.17621e-05 0)
(0.0199546 -3.00564e-05 0)
(0.019961 -2.83914e-05 0)
(0.0199671 -2.67735e-05 0)
(0.0199728 -2.52084e-05 0)
(0.0199782 -2.37043e-05 0)
(0.0199832 -2.22681e-05 0)
(0.0199879 -2.09014e-05 0)
(0.0199924 -1.96045e-05 0)
(0.0199965 -1.83784e-05 0)
(0.0200004 -1.72238e-05 0)
(0.020004 -1.61379e-05 0)
(0.0200074 -1.51163e-05 0)
(0.0200106 -1.41561e-05 0)
(0.0200135 -1.32584e-05 0)
(0.0200163 -1.24228e-05 0)
(0.0200189 -1.16459e-05 0)
(0.0200214 -1.09237e-05 0)
(0.0200236 -1.02546e-05 0)
(0.0200258 -9.63833e-06 0)
(0.0200278 -9.07241e-06 0)
(0.0200297 -8.55363e-06 0)
(0.0200315 -8.07796e-06 0)
(0.0200332 -7.64397e-06 0)
(0.0200348 -7.25187e-06 0)
(0.0200363 -6.89956e-06 0)
(0.0200378 -6.58473e-06 0)
(0.0200392 -6.30559e-06 0)
(0.0200405 -6.06115e-06 0)
(0.0200418 -5.85163e-06 0)
(0.020043 -5.67656e-06 0)
(0.0200442 -5.53357e-06 0)
(0.0200454 -5.42129e-06 0)
(0.0200466 -5.33982e-06 0)
(0.0200477 -5.29008e-06 0)
(0.0200489 -5.27199e-06 0)
(0.02005 -5.28492e-06 0)
(0.0200512 -5.32824e-06 0)
(0.0200523 -5.40234e-06 0)
(0.0200535 -5.50918e-06 0)
(0.0200547 -5.64975e-06 0)
(0.0200559 -5.82549e-06 0)
(0.0200572 -6.0361e-06 0)
(0.0200585 -6.282e-06 0)
(0.0200599 -6.56584e-06 0)
(0.0200614 -6.8901e-06 0)
(0.0200629 -7.25775e-06 0)
(0.0200645 -7.67085e-06 0)
(0.0200662 -8.13024e-06 0)
(0.020068 -8.63866e-06 0)
(0.0200699 -9.19906e-06 0)
(0.020072 -9.81633e-06 0)
(0.0200742 -1.04954e-05 0)
(0.0200765 -1.12408e-05 0)
(0.020079 -1.20562e-05 0)
(0.0200817 -1.29456e-05 0)
(0.0200846 -1.3914e-05 0)
(0.0200877 -1.49682e-05 0)
(0.0200911 -1.61158e-05 0)
(0.0200947 -1.73646e-05 0)
(0.0200985 -1.87227e-05 0)
(0.0201027 -2.01975e-05 0)
(0.0201072 -2.17984e-05 0)
(0.0201121 -2.35334e-05 0)
(0.0201173 -2.5414e-05 0)
(0.020123 -2.74541e-05 0)
(0.0201292 -2.96673e-05 0)
(0.0201358 -3.20669e-05 0)
(0.020143 -3.4668e-05 0)
(0.0201507 -3.74864e-05 0)
(0.0201591 -4.05401e-05 0)
(0.0201681 -4.38488e-05 0)
(0.0201779 -4.74347e-05 0)
(0.0201885 -5.1321e-05 0)
(0.0202 -5.55329e-05 0)
(0.0202124 -6.00965e-05 0)
(0.0202258 -6.50409e-05 0)
(0.0202403 -7.0398e-05 0)
(0.020256 -7.62048e-05 0)
(0.020273 -8.25004e-05 0)
(0.0202914 -8.93269e-05 0)
(0.0203113 -9.67286e-05 0)
(0.0203329 -0.000104754 0)
(0.0203563 -0.000113458 0)
(0.0203816 -0.000122899 0)
(0.020409 -0.000133144 0)
(0.0204387 -0.000144263 0)
(0.0204708 -0.000156332 0)
(0.0205056 -0.000169435 0)
(0.0205434 -0.000183666 0)
(0.0205843 -0.000199128 0)
(0.0206286 -0.000215933 0)
(0.0206767 -0.000234204 0)
(0.0207288 -0.000254075 0)
(0.0207853 -0.000275697 0)
(0.0208466 -0.000299236 0)
(0.0209131 -0.000324876 0)
(0.0209852 -0.000352817 0)
(0.0210636 -0.000383283 0)
(0.0211486 -0.000416524 0)
(0.021241 -0.000452818 0)
(0.0213414 -0.000492478 0)
(0.0214505 -0.000535852 0)
(0.0215691 -0.000583329 0)
(0.0216981 -0.000635344 0)
(0.0218385 -0.000692389 0)
(0.0219913 -0.000755022 0)
(0.0221578 -0.000823874 0)
(0.0223392 -0.00089966 0)
(0.0225371 -0.000983194 0)
(0.0227531 -0.00107541 0)
(0.0229889 -0.00117738 0)
(0.0232466 -0.00129034 0)
(0.0235285 -0.00141571 0)
(0.0238371 -0.00155515 0)
(0.0241753 -0.00171059 0)
(0.0245462 -0.00188428 0)
(0.0249535 -0.0020789 0)
(0.0254014 -0.00229759 0)
(0.0258944 -0.00254409 0)
(0.0264379 -0.00282289 0)
(0.0270378 -0.00313938 0)
(0.0277011 -0.00350009 0)
(0.0284356 -0.00391299 0)
(0.0292503 -0.00438786 0)
(0.0301556 -0.00493679 0)
(0.0311634 -0.00557487 0)
(0.0322872 -0.00632104 0)
(0.0335424 -0.00719934 0)
(0.0349467 -0.00824052 0)
(0.0365196 -0.00948425 0)
(0.0382825 -0.0109822 0)
(0.0402583 -0.0128026 0)
(0.042469 -0.0150359 0)
(0.0449336 -0.0178037 0)
(0.0476611 -0.0212712 0)
(0.0506393 -0.0256639 0)
(0.0538144 -0.0312971 0)
(0.057044 -0.0385991 0)
(0.0600419 -0.0482268 0)
(0.0621569 -0.0609361 0)
(0.0617789 -0.0787001 0)
(0.059298 -0.102218 0)
(0.0174529 -0.143298 0)
(-0.00963034 -0.0322749 0)
(0.00183673 0.0113623 0)
(0.00787426 0.032581 0)
(0.0112767 0.0431424 0)
(0.0149512 0.0456909 0)
(0.0189074 0.0414097 0)
(0.0224977 0.0335267 0)
(0.0245871 0.0262235 0)
(0.0252883 0.0206048 0)
(0.0252529 0.0163726 0)
(0.0248809 0.0131405 0)
(0.0243593 0.010632 0)
(0.0237901 0.00866014 0)
(0.0232305 0.00709195 0)
(0.0227083 0.00583223 0)
(0.0222361 0.00481182 0)
(0.0218181 0.00397931 0)
(0.0214535 0.00329585 0)
(0.0211393 0.00273177 0)
(0.0208713 0.00226414 0)
(0.0206446 0.00187502 0)
(0.0204546 0.00155029 0)
(0.0202966 0.00127866 0)
(0.0201664 0.00105111 0)
(0.0200602 0.000860266 0)
(0.0199746 0.000700195 0)
(0.0199065 0.00056592 0)
(0.0198533 0.000453403 0)
(0.0198126 0.000359207 0)
(0.0197824 0.000280527 0)
(0.0197609 0.00021495 0)
(0.0197467 0.000160462 0)
(0.0197385 0.000115363 0)
(0.0197352 7.82238e-05 0)
(0.0197357 4.77619e-05 0)
(0.0197395 2.29991e-05 0)
(0.0197457 3.02037e-06 0)
(0.0197538 -1.29622e-05 0)
(0.0197634 -2.5569e-05 0)
(0.019774 -3.53543e-05 0)
(0.0197854 -4.2788e-05 0)
(0.0197972 -4.82637e-05 0)
(0.0198093 -5.21258e-05 0)
(0.0198214 -5.46621e-05 0)
(0.0198334 -5.61063e-05 0)
(0.0198453 -5.66619e-05 0)
(0.0198569 -5.65108e-05 0)
(0.0198681 -5.58007e-05 0)
(0.019879 -5.465e-05 0)
(0.0198894 -5.31584e-05 0)
(0.0198994 -5.14125e-05 0)
(0.019909 -4.94857e-05 0)
(0.019918 -4.74371e-05 0)
(0.0199266 -4.53119e-05 0)
(0.0199348 -4.31464e-05 0)
(0.0199424 -4.09724e-05 0)
(0.0199497 -3.88172e-05 0)
(0.0199565 -3.67012e-05 0)
(0.0199629 -3.46399e-05 0)
(0.0199689 -3.26435e-05 0)
(0.0199746 -3.07228e-05 0)
(0.0199799 -2.8883e-05 0)
(0.0199849 -2.71242e-05 0)
(0.0199895 -2.54465e-05 0)
(0.0199938 -2.38537e-05 0)
(0.0199979 -2.235e-05 0)
(0.0200017 -2.09343e-05 0)
(0.0200052 -1.96028e-05 0)
(0.0200085 -1.83533e-05 0)
(0.0200116 -1.71858e-05 0)
(0.0200145 -1.60981e-05 0)
(0.0200172 -1.50851e-05 0)
(0.0200198 -1.41403e-05 0)
(0.0200222 -1.32619e-05 0)
(0.0200244 -1.24499e-05 0)
(0.0200265 -1.17022e-05 0)
(0.0200284 -1.10139e-05 0)
(0.0200303 -1.03809e-05 0)
(0.020032 -9.80183e-06 0)
(0.0200337 -9.27545e-06 0)
(0.0200352 -8.80053e-06 0)
(0.0200367 -8.37267e-06 0)
(0.0200381 -7.98962e-06 0)
(0.0200395 -7.65014e-06 0)
(0.0200408 -7.35477e-06 0)
(0.020042 -7.10217e-06 0)
(0.0200432 -6.88964e-06 0)
(0.0200444 -6.71545e-06 0)
(0.0200455 -6.57851e-06 0)
(0.0200467 -6.48052e-06 0)
(0.0200478 -6.42109e-06 0)
(0.0200489 -6.39918e-06 0)
(0.02005 -6.4135e-06 0)
(0.0200511 -6.4648e-06 0)
(0.0200522 -6.55516e-06 0)
(0.0200533 -6.68622e-06 0)
(0.0200545 -6.85815e-06 0)
(0.0200557 -7.07097e-06 0)
(0.020057 -7.32484e-06 0)
(0.0200582 -7.62247e-06 0)
(0.0200596 -7.96688e-06 0)
(0.020061 -8.36131e-06 0)
(0.0200625 -8.80764e-06 0)
(0.020064 -9.30726e-06 0)
(0.0200657 -9.86243e-06 0)
(0.0200674 -1.04772e-05 0)
(0.0200693 -1.11566e-05 0)
(0.0200713 -1.19057e-05 0)
(0.0200734 -1.273e-05 0)
(0.0200756 -1.36333e-05 0)
(0.0200781 -1.46207e-05 0)
(0.0200807 -1.5697e-05 0)
(0.0200835 -1.68698e-05 0)
(0.0200865 -1.81476e-05 0)
(0.0200897 -1.95387e-05 0)
(0.0200932 -2.10525e-05 0)