/*--------------------------------*- C++ -*----------------------------------*\
  =========                 |
  \\      /  F ield         | OpenFOAM: The Open Source CFD Toolbox
   \\    /   O peration     | Website:  https://openfoam.org
    \\  /    A nd           | Version:  dev
     \\/     M anipulation  |
\*---------------------------------------------------------------------------*/
FoamFile
{
    version     2.0;
    format      ascii;
    class       surfaceScalarField;
    location    "17";
    object      phi;
}
// * * * * * * * * * * * * * * * * * * * * * * * * * * * * * * * * * * * * * //

dimensions      [1 0 -1 0 0 0 0];

internalField   nonuniform List<scalar> 
15760
(
6.57183e-07
0.00115796
-5.61748e-06
0.00116489
-1.18545e-05
0.00116484
0.00114714
-3.90746e-07
-3.26413e-06
0.00116123
-1.42686e-05
0.00117589
-2.95636e-05
0.00118014
0.0011404
-2.28228e-05
-7.03959e-06
0.00116827
-2.30177e-05
0.00119187
-4.77749e-05
0.0012049
0.00114105
-4.84289e-05
-8.05088e-06
0.00117632
-2.63386e-05
0.00121016
-5.6146e-05
0.0012347
0.00115662
-7.17173e-05
-3.72028e-06
0.00118004
-1.88399e-05
0.00122528
-4.74656e-05
0.00126333
0.0011892
-8.00468e-05
7.41065e-06
0.00117263
2.8175e-06
0.00122987
-1.48206e-05
0.00128097
0.00123101
-5.66262e-05
2.59669e-05
0.00114666
3.94901e-05
0.00121635
4.33542e-05
0.0012771
0.00126507
9.29677e-06
5.01459e-05
0.00109651
8.87215e-05
0.00117777
0.000122896
0.00124293
0.0012695
0.000118464
7.60652e-05
0.00102045
0.000144008
0.00110983
0.000213959
0.00117298
0.00122067
0.000262781
9.82136e-05
0.000922235
0.000193275
0.00101477
0.000294476
0.00107178
0.00112173
0.000393425
0.000111482
0.000810753
0.000223178
0.000903072
0.000343377
0.000951578
0.000991815
0.000473288
0.000114446
0.000696307
0.000228586
0.000788933
0.000351128
0.000829036
0.000853098
0.000489846
0.000109095
0.000587213
0.000213996
0.000684031
0.000324299
0.000718733
0.000727709
0.00044969
9.84214e-05
0.000488792
0.000188571
0.000593882
0.000280515
0.000626789
0.000627954
0.000380271
8.38704e-05
0.000404922
0.000159175
0.000518577
0.000234158
0.000551805
0.000551061
0.000311051
6.53923e-05
0.000339529
0.000128145
0.000455825
0.000190306
0.000489645
0.0004898
0.000251567
4.52309e-05
0.000294298
9.69947e-05
0.000404061
0.00014987
0.000436769
0.000438019
0.000201651
2.86177e-05
0.00026568
7.02523e-05
0.000362427
0.000115717
0.000391305
0.000392469
0.000161267
1.87411e-05
0.000246939
5.19401e-05
0.000329228
9.07805e-05
0.000352464
0.000352471
0.000130778
1.46775e-05
0.000232261
4.17557e-05
0.00030215
7.45578e-05
0.000319662
0.000318205
0.000108824
1.36241e-05
0.000218637
3.64641e-05
0.00027931
6.39974e-05
0.000292129
0.000289457
9.27457e-05
1.32579e-05
0.000205379
3.30068e-05
0.000259561
5.62183e-05
0.000268917
0.000265461
8.02141e-05
1.26494e-05
0.00019273
2.99445e-05
0.000242266
4.97159e-05
0.000249146
0.000245312
6.98653e-05
1.17626e-05
0.000180967
2.6987e-05
0.000227041
4.39829e-05
0.00023215
0.000228248
6.10472e-05
1.07545e-05
0.000170213
2.41808e-05
0.000213615
3.88721e-05
0.000217459
0.00021369
5.34301e-05
9.72742e-06
0.000160485
2.157e-05
0.000201773
3.4306e-05
0.000204723
0.000201196
4.67999e-05
8.72968e-06
0.000151756
1.91636e-05
0.000191339
3.022e-05
0.000193666
0.000190424
4.09915e-05
7.78386e-06
0.000143972
1.69558e-05
0.000182167
2.65568e-05
0.000184066
0.000181111
3.58703e-05
6.89976e-06
0.000137072
1.49356e-05
0.000174131
2.32648e-05
0.000175736
0.00017305
3.13257e-05
6.07827e-06
0.000130994
1.30864e-05
0.000167123
2.02956e-05
0.000168527
0.00016608
2.72653e-05
5.31895e-06
0.000125675
1.13941e-05
0.000161048
1.76085e-05
0.000162313
0.000160074
2.36146e-05
4.60929e-06
0.000121066
9.83573e-06
0.000155821
1.51626e-05
0.000156986
0.000154927
2.03101e-05
3.95181e-06
0.000117114
8.40459e-06
0.000151368
1.29306e-05
0.00015246
0.000150554
1.73033e-05
3.34897e-06
0.000113765
7.09761e-06
0.00014762
1.08956e-05
0.000148662
0.000146891
1.45585e-05
2.78993e-06
0.000110975
5.89341e-06
0.000144516
9.02495e-06
0.00014553
0.000143883
1.20333e-05
2.26226e-06
0.000108713
4.76673e-06
0.000142012
7.28335e-06
0.000143014
0.000141479
9.68669e-06
1.76301e-06
0.00010695
3.7078e-06
0.000140067
5.65458e-06
0.000141067
0.000139636
7.49765e-06
1.2948e-06
0.000105655
2.71813e-06
0.000138644
4.13607e-06
0.000139649
0.000138314
5.45792e-06
8.5865e-07
0.000104796
1.79777e-06
0.000137704
2.72406e-06
0.000138723
0.000137479
3.55914e-06
4.52998e-07
0.000104343
9.42204e-07
0.000137215
1.41064e-06
0.000138254
0.000137099
1.79119e-06
7.51936e-08
0.000104268
1.4429e-07
0.000137146
1.8743e-07
0.000138211
0.00013714
1.45689e-07
-2.79187e-07
0.000104547
-5.99455e-07
0.000137466
-9.49116e-07
0.000138561
0.000137573
-1.38167e-06
-6.04232e-07
0.000105151
-1.28332e-06
0.000138146
-1.99617e-06
0.000139274
0.000138368
-2.79094e-06
-9.03839e-07
0.000106055
-1.91217e-06
0.000139154
-2.95822e-06
0.00014032
0.000139495
-4.08561e-06
-1.17863e-06
0.000107234
-2.4875e-06
0.000140463
-3.8376e-06
0.00014167
0.000140926
-5.26851e-06
-1.42861e-06
0.000108662
-3.00966e-06
0.000142044
-4.6349e-06
0.000143295
0.000142631
-6.34037e-06
-1.65382e-06
0.000110316
-3.47894e-06
0.000143869
-5.35065e-06
0.000145167
0.000144583
-7.30188e-06
-1.85439e-06
0.000112171
-3.89578e-06
0.00014591
-5.98572e-06
0.000147257
0.000146751
-8.15423e-06
-2.03057e-06
0.000114201
-4.26094e-06
0.000148141
-6.54138e-06
0.000149537
0.000149109
-8.89902e-06
-2.18276e-06
0.000116384
-4.57547e-06
0.000150533
-7.01925e-06
0.000151981
0.000151628
-9.53841e-06
-2.31149e-06
0.000118695
-4.84069e-06
0.000153063
-7.42138e-06
0.000154562
0.000154282
-1.00751e-05
-2.41743e-06
0.000121113
-5.0582e-06
0.000155703
-7.75027e-06
0.000157254
0.000157044
-1.05126e-05
-2.50146e-06
0.000123614
-5.22988e-06
0.000158432
-8.00889e-06
0.000160033
0.00015989
-1.08549e-05
-2.5646e-06
0.000126179
-5.35793e-06
0.000161225
-8.20067e-06
0.000162875
0.000162796
-1.11067e-05
-2.60799e-06
0.000128787
-5.44482e-06
0.000164062
-8.3295e-06
0.00016576
0.00016574
-1.12733e-05
-2.6329e-06
0.00013142
-5.49329e-06
0.000166922
-8.39959e-06
0.000168666
0.000168701
-1.13606e-05
-2.64071e-06
0.00013406
-5.50623e-06
0.000169788
-8.41542e-06
0.000171576
0.00017166
-1.13747e-05
-2.63281e-06
0.000136693
-5.48667e-06
0.000172642
-8.3817e-06
0.000174471
0.000174601
-1.13221e-05
-2.61072e-06
0.000139304
-5.43778e-06
0.000175469
-8.30334e-06
0.000177336
0.000177507
-1.12094e-05
-2.57595e-06
0.00014188
-5.36273e-06
0.000178256
-8.18522e-06
0.000180159
0.000180365
-1.10435e-05
-2.53001e-06
0.00014441
-5.26468e-06
0.00018099
-8.03221e-06
0.000182926
0.000183164
-1.08308e-05
-2.47437e-06
0.000146884
-5.1467e-06
0.000183662
-7.84904e-06
0.000185629
0.000185892
-1.05779e-05
-2.41049e-06
0.000149295
-5.01177e-06
0.000186264
-7.64027e-06
0.000188257
0.000188543
-1.02909e-05
-2.3397e-06
0.000151634
-4.86276e-06
0.000188787
-7.41028e-06
0.000190805
0.000191109
-9.97586e-06
-2.26333e-06
0.000153898
-4.70233e-06
0.000191226
-7.16317e-06
0.000193265
0.000193584
-9.63825e-06
-2.18255e-06
0.00015608
-4.53299e-06
0.000193576
-6.90276e-06
0.000195635
0.000195964
-9.28325e-06
-2.09849e-06
0.000158179
-4.35704e-06
0.000195835
-6.63255e-06
0.000197911
0.000198247
-8.91558e-06
-2.01217e-06
0.000160191
-4.17658e-06
0.000197999
-6.35575e-06
0.00020009
0.000200431
-8.53955e-06
-1.9245e-06
0.000162115
-3.99348e-06
0.000200068
-6.07521e-06
0.000202172
0.000202515
-8.15899e-06
-1.83628e-06
0.000163952
-3.80943e-06
0.000202041
-5.79349e-06
0.000204156
0.000204499
-7.7773e-06
-1.74824e-06
0.0001657
-3.62591e-06
0.000203919
-5.5128e-06
0.000206043
0.000206383
-7.39748e-06
-1.661e-06
0.000167361
-3.4442e-06
0.000205702
-5.23508e-06
0.000207833
0.00020817
-7.02208e-06
-1.57509e-06
0.000168936
-3.26538e-06
0.000207393
-4.96198e-06
0.00020953
0.000209862
-6.65328e-06
-1.49097e-06
0.000170427
-3.09037e-06
0.000208992
-4.69489e-06
0.000211135
0.00021146
-6.29293e-06
-1.409e-06
0.000171836
-2.91995e-06
0.000210503
-4.43493e-06
0.00021265
0.000212967
-5.94249e-06
-1.32949e-06
0.000173165
-2.75471e-06
0.000211928
-4.18304e-06
0.000214078
0.000214387
-5.60318e-06
-1.25269e-06
0.000174418
-2.59516e-06
0.000213271
-3.93992e-06
0.000215423
0.000215723
-5.27593e-06
-1.17875e-06
0.000175597
-2.44164e-06
0.000214533
-3.70611e-06
0.000216687
0.000216979
-4.96142e-06
-1.10783e-06
0.000176705
-2.29441e-06
0.00021572
-3.48198e-06
0.000217875
0.000218157
-4.66013e-06
-1.03999e-06
0.000177745
-2.15364e-06
0.000216834
-3.2678e-06
0.000218989
0.000219261
-4.37234e-06
-9.75287e-07
0.00017872
-2.01944e-06
0.000217878
-3.06365e-06
0.000220033
0.000220296
-4.09821e-06
-9.1374e-07
0.000179634
-1.89179e-06
0.000218856
-2.86956e-06
0.000221011
0.000221264
-3.83772e-06
-8.55321e-07
0.000180489
-1.77069e-06
0.000219771
-2.68547e-06
0.000221926
0.000222169
-3.59076e-06
-7.99994e-07
0.000181289
-1.65602e-06
0.000220627
-2.51123e-06
0.000222781
0.000223015
-3.35711e-06
-7.47711e-07
0.000182037
-1.54767e-06
0.000221427
-2.34663e-06
0.00022358
0.000223805
-3.13649e-06
-6.98388e-07
0.000182735
-1.44549e-06
0.000222174
-2.19144e-06
0.000224326
0.000224542
-2.92854e-06
-6.51944e-07
0.000183387
-1.34929e-06
0.000222872
-2.04536e-06
0.000225022
0.00022523
-2.73288e-06
-6.08281e-07
0.000183995
-1.25886e-06
0.000223522
-1.90808e-06
0.000225671
0.000225871
-2.54906e-06
-5.67296e-07
0.000184562
-1.17398e-06
0.000224129
-1.77927e-06
0.000226276
0.000226468
-2.37663e-06
-5.28879e-07
0.000185091
-1.09444e-06
0.000224695
-1.65857e-06
0.00022684
0.000227025
-2.21512e-06
-4.92912e-07
0.000185584
-1.02e-06
0.000225222
-1.54563e-06
0.000227366
0.000227543
-2.06402e-06
-4.593e-07
0.000186044
-9.50427e-07
0.000225713
-1.44009e-06
0.000227856
0.000228026
-1.92287e-06
-4.27915e-07
0.000186471
-8.85488e-07
0.00022617
-1.3416e-06
0.000228312
0.000228475
-1.79117e-06
-3.98659e-07
0.00018687
-8.24949e-07
0.000226597
-1.2498e-06
0.000228737
0.000228894
-1.66844e-06
-3.71408e-07
0.000187241
-7.6859e-07
0.000226994
-1.16435e-06
0.000229132
0.000229284
-1.55421e-06
-3.46078e-07
0.000187588
-7.16178e-07
0.000227364
-1.0849e-06
0.000229501
0.000229647
-1.44803e-06
-3.22546e-07
0.00018791
-6.67516e-07
0.000227709
-1.01112e-06
0.000229845
0.000229985
-1.34946e-06
-3.00722e-07
0.000188211
-6.22382e-07
0.00022803
-9.4272e-07
0.000230165
0.000230301
-1.25807e-06
-2.80517e-07
0.000188491
-5.80589e-07
0.000228331
-8.79384e-07
0.000230464
0.000230595
-1.17346e-06
-2.61828e-07
0.000188753
-5.41953e-07
0.000228611
-8.20831e-07
0.000230743
0.000230869
-1.09525e-06
-2.44573e-07
0.000188998
-5.06297e-07
0.000228872
-7.6679e-07
0.000231003
0.000231125
-1.02308e-06
-2.28676e-07
0.000189226
-4.73442e-07
0.000229117
-7.17006e-07
0.000231247
0.000231365
-9.566e-07
-2.14059e-07
0.00018944
-4.43234e-07
0.000229346
-6.71243e-07
0.000231475
0.000231589
-8.95497e-07
-2.0065e-07
0.000189641
-4.15535e-07
0.000229561
-6.29275e-07
0.000231689
0.000231799
-8.39461e-07
-1.88386e-07
0.000189829
-3.90198e-07
0.000229763
-5.90894e-07
0.000231889
0.000231997
-7.88223e-07
-1.77203e-07
0.000190007
-3.67102e-07
0.000229953
-5.55907e-07
0.000232078
0.000232182
-7.41506e-07
-1.67038e-07
0.000190174
-3.46129e-07
0.000230132
-5.24127e-07
0.000232256
0.000232357
-6.99085e-07
-1.57847e-07
0.000190331
-3.27167e-07
0.000230301
-4.95396e-07
0.000232424
0.000232523
-6.60735e-07
-1.49582e-07
0.000190481
-3.10114e-07
0.000230462
-4.69566e-07
0.000232584
0.000232679
-6.26256e-07
-1.422e-07
0.000190623
-2.94888e-07
0.000230615
-4.46505e-07
0.000232735
0.000232828
-5.95462e-07
-1.3566e-07
0.000190759
-2.81413e-07
0.00023076
-4.2608e-07
0.00023288
0.00023297
-5.68194e-07
-1.29928e-07
0.000190889
-2.6961e-07
0.0002309
-4.08184e-07
0.000233019
0.000233107
-5.4431e-07
-1.24969e-07
0.000191014
-2.59415e-07
0.000231034
-3.92738e-07
0.000233152
0.000233238
-5.23678e-07
-1.20766e-07
0.000191135
-2.50778e-07
0.000231164
-3.79641e-07
0.000233281
0.000233364
-5.06194e-07
-1.17289e-07
0.000191252
-2.43652e-07
0.000231291
-3.68838e-07
0.000233406
0.000233487
-4.91764e-07
-1.14523e-07
0.000191366
-2.38005e-07
0.000231414
-3.60268e-07
0.000233528
0.000233607
-4.80315e-07
-1.12465e-07
0.000191479
-2.33808e-07
0.000231536
-3.53893e-07
0.000233648
0.000233725
-4.71787e-07
-1.11091e-07
0.00019159
-2.31039e-07
0.000231656
-3.49685e-07
0.000233767
0.000233841
-4.66143e-07
-1.10395e-07
0.0001917
-2.29696e-07
0.000231775
-3.47618e-07
0.000233885
0.000233957
-4.63361e-07
-1.1039e-07
0.000191811
-2.29764e-07
0.000231894
-3.47694e-07
0.000234003
0.000234073
-4.63425e-07
-1.11064e-07
0.000191922
-2.31252e-07
0.000232014
-3.49919e-07
0.000234121
0.000234189
-4.66356e-07
-1.12429e-07
0.000192034
-2.34179e-07
0.000232136
-3.54303e-07
0.000234242
0.000234307
-4.72173e-07
-1.14499e-07
0.000192149
-2.38552e-07
0.00023226
-3.60892e-07
0.000234364
0.000234427
-4.80928e-07
-1.17285e-07
0.000192266
-2.44414e-07
0.000232387
-3.69737e-07
0.000234489
0.00023455
-4.92666e-07
-1.20804e-07
0.000192387
-2.51811e-07
0.000232518
-3.8088e-07
0.000234618
0.000234677
-5.07483e-07
-1.25074e-07
0.000192512
-2.60787e-07
0.000232654
-3.9441e-07
0.000234752
0.000234808
-5.2548e-07
-1.30144e-07
0.000192642
-2.71398e-07
0.000232795
-4.10423e-07
0.000234891
0.000234944
-5.46774e-07
-1.36029e-07
0.000192778
-2.8373e-07
0.000232943
-4.29023e-07
0.000235036
0.000235087
-5.71514e-07
-1.42784e-07
0.000192921
-2.97854e-07
0.000233098
-4.50331e-07
0.000235189
0.000235236
-5.99863e-07
-1.50451e-07
0.000193071
-3.13864e-07
0.000233261
-4.74501e-07
0.000235349
0.000235394
-6.32007e-07
-1.59074e-07
0.00019323
-3.31877e-07
0.000233434
-5.0168e-07
0.000235519
0.00023556
-6.68172e-07
-1.68717e-07
0.000193399
-3.52009e-07
0.000233618
-5.32064e-07
0.000235699
0.000235737
-7.08583e-07
-1.79445e-07
0.000193578
-3.74393e-07
0.000233813
-5.65848e-07
0.000235891
0.000235924
-7.53527e-07
-1.91334e-07
0.00019377
-3.99186e-07
0.00023402
-6.0326e-07
0.000236095
0.000236124
-8.03295e-07
-2.04459e-07
0.000193974
-4.26555e-07
0.000234242
-6.44556e-07
0.000236313
0.000236338
-8.58221e-07
-2.18914e-07
0.000194193
-4.56681e-07
0.00023448
-6.90006e-07
0.000236546
0.000236567
-9.18683e-07
-2.348e-07
0.000194428
-4.89772e-07
0.000234735
-7.3993e-07
0.000236796
0.000236812
-9.8508e-07
-2.52224e-07
0.00019468
-5.26057e-07
0.000235009
-7.94665e-07
0.000237065
0.000237075
-1.05787e-06
-2.71304e-07
0.000194951
-5.65783e-07
0.000235303
-8.54586e-07
0.000237354
0.000237358
-1.13755e-06
-2.92179e-07
0.000195243
-6.09222e-07
0.000235621
-9.20108e-07
0.000237665
0.000237663
-1.22468e-06
-3.14987e-07
0.000195558
-6.56688e-07
0.000235962
-9.9168e-07
0.000238
0.000237991
-1.31985e-06
-3.39905e-07
0.000195898
-7.08505e-07
0.000236331
-1.06982e-06
0.000238361
0.000238345
-1.42372e-06
-3.67101e-07
0.000196265
-7.65055e-07
0.000236729
-1.15506e-06
0.000238751
0.000238727
-1.53704e-06
-3.96778e-07
0.000196662
-8.2673e-07
0.000237159
-1.24802e-06
0.000239172
0.000239139
-1.66059e-06
-4.29152e-07
0.000197091
-8.9398e-07
0.000237624
-1.34937e-06
0.000239628
0.000239585
-1.79525e-06
-4.6446e-07
0.000197556
-9.67298e-07
0.000238126
-1.45983e-06
0.00024012
0.000240067
-1.94202e-06
-5.02969e-07
0.000198059
-1.04722e-06
0.000238671
-1.58022e-06
0.000240653
0.000240589
-2.10195e-06
-5.44971e-07
0.000198604
-1.13435e-06
0.00023926
-1.71144e-06
0.00024123
0.000241154
-2.27622e-06
-5.90791e-07
0.000199195
-1.22935e-06
0.000239899
-1.85447e-06
0.000241855
0.000241766
-2.46614e-06
-6.40786e-07
0.000199835
-1.33295e-06
0.000240591
-2.01039e-06
0.000242533
0.000242428
-2.67314e-06
-6.95355e-07
0.000200531
-1.44595e-06
0.000241341
-2.18042e-06
0.000243267
0.000243147
-2.8988e-06
-7.54934e-07
0.000201286
-1.56925e-06
0.000242156
-2.36588e-06
0.000244064
0.000243926
-3.14489e-06
-8.2001e-07
0.000202106
-1.70385e-06
0.00024304
-2.56826e-06
0.000244928
0.000244771
-3.41335e-06
-8.91143e-07
0.000202997
-1.85084e-06
0.000243999
-2.78919e-06
0.000245867
0.000245688
-3.70632e-06
-9.68928e-07
0.000203966
-2.01146e-06
0.000245042
-3.03051e-06
0.000246886
0.000246684
-4.02622e-06
-1.05404e-06
0.00020502
-2.18709e-06
0.000246175
-3.29424e-06
0.000247993
0.000247765
-4.37571e-06
-1.14728e-06
0.000206167
-2.37925e-06
0.000247407
-3.58266e-06
0.000249196
0.00024894
-4.75777e-06
-1.24947e-06
0.000207416
-2.58966e-06
0.000248747
-3.89831e-06
0.000250505
0.000250218
-5.17571e-06
-1.36157e-06
0.000208778
-2.82026e-06
0.000250206
-4.24404e-06
0.000251929
0.000251607
-5.63327e-06
-1.48469e-06
0.000210263
-3.0732e-06
0.000251794
-4.62305e-06
0.000253478
0.000253118
-6.13462e-06
-1.62004e-06
0.000211883
-3.35094e-06
0.000253525
-5.03894e-06
0.000255166
0.000254764
-6.68446e-06
-1.76901e-06
0.000213652
-3.65623e-06
0.000255412
-5.49577e-06
0.000257006
0.000256556
-7.28807e-06
-1.93318e-06
0.000215585
-3.99222e-06
0.000257471
-5.99815e-06
0.000259012
0.00025851
-7.95146e-06
-2.11437e-06
0.000217699
-4.36247e-06
0.000259719
-6.55131e-06
0.000261201
0.00026064
-8.68141e-06
-2.31465e-06
0.000220014
-4.77106e-06
0.000262176
-7.16122e-06
0.000263591
0.000262964
-9.48563e-06
-2.53638e-06
0.00022255
-5.22265e-06
0.000264862
-7.83467e-06
0.000266203
0.000265502
-1.03729e-05
-2.7823e-06
0.000225332
-5.72258e-06
0.000267802
-8.57947e-06
0.00026906
0.000268276
-1.13534e-05
-3.05556e-06
0.000228388
-6.27703e-06
0.000271024
-9.40459e-06
0.000272187
0.00027131
-1.24386e-05
-3.35983e-06
0.000231748
-6.89311e-06
0.000274557
-1.03204e-05
0.000275615
0.000274632
-1.36418e-05
-3.69937e-06
0.000235447
-7.57913e-06
0.000278437
-1.13389e-05
0.000279374
0.000278271
-1.49784e-05
-4.07919e-06
0.000239526
-8.34473e-06
0.000282702
-1.2474e-05
0.000283504
0.000282264
-1.64664e-05
-4.50519e-06
0.000244032
-9.20127e-06
0.000287398
-1.37422e-05
0.000288044
0.000286648
-1.81266e-05
-4.98431e-06
0.000249016
-1.01621e-05
0.000292576
-1.51626e-05
0.000293045
0.000291469
-1.99834e-05
-5.52476e-06
0.000254541
-1.1243e-05
0.000298295
-1.6758e-05
0.00029856
0.000296777
-2.20658e-05
-6.1364e-06
0.000260677
-1.24629e-05
0.000304621
-1.85552e-05
0.000304652
0.000302629
-2.44079e-05
-6.83105e-06
0.000267508
-1.38441e-05
0.000311634
-2.05866e-05
0.000311395
0.000309093
-2.70501e-05
-7.62296e-06
0.000275131
-1.5414e-05
0.000319425
-2.28908e-05
0.000318872
0.000316243
-3.00411e-05
-8.52955e-06
0.000283661
-1.72054e-05
0.000328101
-2.55146e-05
0.000327181
0.000324168
-3.34395e-05
-9.5718e-06
0.000293232
-1.92585e-05
0.000337788
-2.85149e-05
0.000336437
0.000332969
-3.73162e-05
-1.07768e-05
0.000304009
-2.16229e-05
0.000348634
-3.19617e-05
0.000346776
0.000342766
-4.17579e-05
-1.21744e-05
0.000316183
-2.43598e-05
0.000360819
-3.59416e-05
0.000358358
0.000353695
-4.68708e-05
-1.38128e-05
0.000329996
-2.75467e-05
0.000374553
-4.05623e-05
0.000371373
0.00036592
-5.27877e-05
-1.57263e-05
0.000345723
-3.12802e-05
0.000390107
-4.59603e-05
0.000386053
0.000379632
-5.96722e-05
-1.80194e-05
0.000363742
-3.56856e-05
0.000407773
-5.23071e-05
0.000402675
0.00039506
-6.77354e-05
-2.07082e-05
0.00038445
-4.09256e-05
0.000427991
-5.98278e-05
0.000421577
0.00041247
-7.72375e-05
-2.40175e-05
0.000408468
-4.72064e-05
0.00045118
-6.88087e-05
0.000443179
0.000432189
-8.85278e-05
-2.79468e-05
0.000436414
-5.48222e-05
0.000478055
-7.9636e-05
0.000467993
0.000454593
-0.00010204
-3.28834e-05
0.000469298
-6.41331e-05
0.000509305
-9.28147e-05
0.000496675
0.000480147
-0.000118369
-3.89107e-05
0.000508209
-7.56865e-05
0.00054608
-0.000109044
0.000530032
0.000509383
-0.00013828
-4.66354e-05
0.000554844
-9.01849e-05
0.00058963
-0.000129267
0.000569115
0.000542949
-0.000162834
-5.64212e-05
0.000611265
-0.000108695
0.000641904
-0.000154831
0.00061525
0.000581561
-0.000193443
-6.92684e-05
0.000680534
-0.000132682
0.000705317
-0.000187621
0.000670189
0.000626046
-0.000232106
-8.63727e-05
0.000766906
-0.000164456
0.000783401
-0.000230399
0.000736132
0.000677205
-0.000281558
-0.000109274
0.000876181
-0.000207117
0.000881244
-0.000287303
0.000816317
0.000735746
-0.000345844
-0.000141933
0.00101811
-0.000266354
0.00100566
-0.000364329
0.000914292
0.00080185
-0.000430433
-0.000185642
0.00120376
-0.000348329
0.00116835
-0.000472105
0.00103807
0.000874682
-0.000544937
-0.000246985
0.00145074
-0.000465165
0.00138653
-0.00062318
0.00119608
0.000951042
-0.00069954
-0.000350195
0.00180094
-0.000640588
0.00167692
-0.000854187
0.00140968
0.00102911
-0.000932257
-0.000404002
0.00220494
-0.000810066
0.00208299
-0.00115072
0.00175033
0.0011265
-0.0012481
-0.000772896
-0.0014126
-0.00179488
-0.0019635
9.48953e-05
-9.52861e-05
0.000209066
-0.000136993
0.000339691
-0.000179054
0.000481184
-0.00021321
0.000619146
-0.000218008
0.00074135
-0.000178831
0.000851416
-0.000100769
0.000952499
1.73811e-05
0.00100953
0.000205754
0.000990063
0.000412887
0.000913283
0.000550067
0.000805098
0.000598031
0.000690769
0.000564018
0.000594522
0.000476518
0.000521802
0.00038377
0.000464637
0.000308733
0.000416439
0.00024985
0.000373847
0.000203858
0.000336336
0.00016829
0.000304213
0.000140947
0.000277306
0.000119653
0.000254906
0.000102614
0.000236159
8.86122e-05
0.00022032
7.68862e-05
0.000206811
6.69391e-05
0.000195199
5.84118e-05
0.000185163
5.10277e-05
0.000176461
4.4572e-05
0.00016891
3.88767e-05
0.000162367
3.38089e-05
0.000156718
2.92633e-05
0.000151873
2.51549e-05
0.00014776
2.14168e-05
0.000144322
1.79964e-05
0.000141512
1.48433e-05
0.000139284
1.19142e-05
0.000137598
9.1835e-06
0.00013642
6.63676e-06
0.000135717
4.26186e-06
0.00013546
2.04753e-06
0.000135621
-1.46287e-08
0.000136169
-1.92955e-06
0.000137077
-3.69897e-06
0.000138316
-5.32491e-06
0.000139858
-6.81018e-06
0.000141673
-8.15552e-06
0.000143733
-9.36168e-06
0.000146008
-1.04298e-05
0.000148471
-1.13618e-05
0.000151093
-1.216e-05
0.000153845
-1.2828e-05
0.000156703
-1.337e-05
0.000159639
-1.37912e-05
0.00016263
-1.40977e-05
0.000165653
-1.42965e-05
0.000168687
-1.43948e-05
0.000171713
-1.44006e-05
0.000174714
-1.43225e-05
0.000177673
-1.4169e-05
0.000180578
-1.39486e-05
0.000183417
-1.36698e-05
0.00018618
-1.33409e-05
0.000188859
-1.29698e-05
0.000191448
-1.25641e-05
0.00019394
-1.21308e-05
0.000196333
-1.16765e-05
0.000198625
-1.12071e-05
0.000200813
-1.0728e-05
0.000202898
-1.0244e-05
0.00020488
-9.75936e-06
0.000206761
-9.27782e-06
0.000208541
-8.80253e-06
0.000210224
-8.3362e-06
0.000211812
-7.88105e-06
0.000213309
-7.43893e-06
0.000214717
-7.01126e-06
0.00021604
-6.59918e-06
0.000217282
-6.20348e-06
0.000218447
-5.82471e-06
0.000219538
-5.46321e-06
0.000220558
-5.11908e-06
0.000221513
-4.79229e-06
0.000222405
-4.48266e-06
0.000223238
-4.18989e-06
0.000224015
-3.91359e-06
0.00022474
-3.65329e-06
0.000225415
-3.40848e-06
0.000226045
-3.17859e-06
0.000226631
-2.96302e-06
0.000227177
-2.76117e-06
0.000227686
-2.57241e-06
0.000228159
-2.39612e-06
0.000228599
-2.23169e-06
0.000229009
-2.0785e-06
0.000229391
-1.93595e-06
0.000229747
-1.80348e-06
0.000230078
-1.68053e-06
0.000230386
-1.56656e-06
0.000230674
-1.46107e-06
0.000230942
-1.36357e-06
0.000231193
-1.27361e-06
0.000231427
-1.19077e-06
0.000231646
-1.11462e-06
0.000231851
-1.04481e-06
0.000232044
-9.80963e-07
0.000232225
-9.22772e-07
0.000232396
-8.69929e-07
0.000232557
-8.22159e-07
0.00023271
-7.7921e-07
0.000232856
-7.40857e-07
0.000232994
-7.069e-07
0.000233127
-6.77149e-07
0.000233255
-6.51451e-07
0.000233379
-6.29667e-07
0.000233498
-6.11682e-07
0.000233616
-5.9741e-07
0.000233731
-5.86772e-07
0.000233844
-5.79724e-07
0.000233957
-5.7623e-07
0.00023407
-5.76288e-07
0.000234183
-5.79902e-07
0.000234298
-5.87102e-07
0.000234415
-5.97946e-07
0.000234535
-6.12513e-07
0.000234659
-6.30901e-07
0.000234786
-6.5324e-07
0.000234919
-6.79677e-07
0.000235058
-7.1039e-07
0.000235204
-7.45591e-07
0.000235357
-7.85509e-07
0.00023552
-8.3041e-07
0.000235692
-8.80593e-07
0.000235874
-9.36394e-07
0.000236069
-9.98182e-07
0.000236278
-1.06638e-06
0.0002365
-1.14144e-06
0.000236739
-1.22386e-06
0.000236995
-1.31421e-06
0.000237271
-1.41312e-06
0.000237568
-1.52125e-06
0.000237887
-1.63934e-06
0.000238232
-1.76823e-06
0.000238603
-1.90881e-06
0.000239005
-2.06206e-06
0.000239439
-2.2291e-06
0.000239908
-2.4111e-06
0.000240415
-2.60939e-06
0.000240964
-2.82542e-06
0.000241559
-3.0608e-06
0.000242203
-3.31729e-06
0.000242901
-3.59684e-06
0.000243658
-3.90161e-06
0.000244479
-4.23398e-06
0.000245369
-4.59661e-06
0.000246335
-4.99242e-06
0.000247384
-5.42469e-06
0.000248523
-5.89704e-06
0.000249761
-6.41356e-06
0.000251107
-6.97876e-06
0.00025257
-7.59775e-06
0.000254161
-8.27623e-06
0.000255894
-9.02063e-06
0.000257781
-9.83822e-06
0.000259837
-1.07372e-05
0.000262078
-1.17269e-05
0.000264523
-1.2818e-05
0.000267192
-1.40225e-05
0.000270108
-1.53543e-05
0.000273295
-1.68294e-05
0.000276783
-1.84662e-05
0.000280603
-2.0286e-05
0.00028479
-2.23135e-05
0.000289384
-2.45777e-05
0.000294431
-2.71127e-05
0.000299981
-2.99584e-05
0.000306094
-3.31623e-05
0.000312833
-3.67808e-05
0.000320276
-4.08818e-05
0.000328506
-4.55468e-05
0.000337623
-5.08746e-05
0.000347738
-5.69862e-05
0.00035898
-6.40296e-05
0.000371497
-7.21892e-05
0.000385454
-8.16924e-05
0.000401048
-9.28309e-05
0.000418483
-0.000105963
0.000438009
-0.000121566
0.000459868
-0.000140227
0.000484331
-0.000162743
0.000511617
-0.000190121
0.000541901
-0.000223726
0.000575133
-0.000265337
0.000610935
-0.00031736
0.000648084
-0.000382993
0.00068417
-0.000466519
0.000712933
-0.0005737
0.000724842
-0.000711449
0.000682461
-0.000889877
0.000543414
-0.00110906
-0.00142009
7.92239e-05
-0.00017451
0.000173424
-0.000231193
0.00028004
-0.000285671
0.000393191
-0.000326361
0.00050825
-0.000333068
0.00061208
-0.000282662
0.000686496
-0.000175185
0.00073481
-3.09322e-05
0.000771564
0.000169002
0.000770732
0.000413718
0.000732883
0.000587915
0.000671332
0.000659581
0.000593841
0.000641509
0.000520798
0.000549561
0.000463549
0.000441021
0.00041721
0.000355072
0.000376946
0.000290114
0.000340858
0.000239946
0.000309106
0.000200042
0.000282005
0.000168048
0.000259237
0.000142421
0.000240106
0.000121745
0.000223896
0.000104822
0.000210024
9.0758e-05
0.000198052
7.89112e-05
0.000187657
6.88073e-05
0.000178596
6.00886e-05
0.000170685
5.2483e-05
0.00016378
4.5781e-05
0.00015777
3.98188e-05
0.000152566
3.44677e-05
0.000148096
2.96255e-05
0.000144301
2.5211e-05
0.000141139
2.11592e-05
0.000138568
1.7414e-05
0.000136552
1.39306e-05
0.000135055
1.06801e-05
0.000134049
7.64233e-06
0.000133508
4.8031e-06
0.000133405
2.15097e-06
0.000133712
-3.22216e-07
0.000134404
-2.62125e-06
0.000135454
-4.7484e-06
0.000136833
-6.70445e-06
0.000138514
-8.49124e-06
0.000140468
-1.01093e-05
0.000142665
-1.15591e-05
0.000145077
-1.28413e-05
0.000147673
-1.39579e-05
0.000150424
-1.49116e-05
0.000153303
-1.57066e-05
0.000156281
-1.63479e-05
0.000159332
-1.6842e-05
0.00016243
-1.71965e-05
0.000165554
-1.74198e-05
0.00016868
-1.75211e-05
0.00017179
-1.75106e-05
0.000174866
-1.73985e-05
0.000177893
-1.71955e-05
0.000180856
-1.69122e-05
0.000183745
-1.65591e-05
0.000186551
-1.61463e-05
0.000189265
-1.56836e-05
0.000191881
-1.51802e-05
0.000194394
-1.46447e-05
0.000196803
-1.4085e-05
0.000199104
-1.35084e-05
0.000201298
-1.29214e-05
0.000203383
-1.23297e-05
0.000205363
-1.17384e-05
0.000207237
-1.1152e-05
0.000209008
-1.05741e-05
0.00021068
-1.0008e-05
0.000212255
-9.45619e-06
0.000213737
-8.92091e-06
0.00021513
-8.40377e-06
0.000216436
-7.90601e-06
0.000217662
-7.42857e-06
0.000218809
-6.972e-06
0.000219882
-6.53663e-06
0.000220886
-6.12254e-06
0.000221823
-5.72963e-06
0.000222698
-5.35763e-06
0.000223514
-5.00612e-06
0.000224275
-4.6746e-06
0.000224984
-4.36247e-06
0.000225645
-4.06906e-06
0.00022626
-3.79369e-06
0.000226833
-3.5356e-06
0.000227366
-3.29404e-06
0.000227861
-3.06824e-06
0.000228323
-2.85744e-06
0.000228752
-2.66088e-06
0.000229151
-2.47782e-06
0.000229523
-2.30754e-06
0.000229869
-2.14933e-06
0.000230191
-2.00254e-06
0.000230491
-1.8665e-06
0.00023077
-1.74061e-06
0.000231031
-1.62428e-06
0.000231274
-1.51697e-06
0.000231502
-1.41815e-06
0.000231714
-1.32735e-06
0.000231914
-1.2441e-06
0.000232101
-1.16799e-06
0.000232276
-1.09862e-06
0.000232442
-1.03563e-06
0.000232599
-9.78699e-07
0.000232747
-9.27517e-07
0.000232888
-8.81817e-07
0.000233022
-8.41343e-07
0.000233151
-8.05894e-07
0.000233275
-7.75266e-07
0.000233395
-7.49301e-07
0.000233511
-7.27863e-07
0.000233624
-7.10843e-07
0.000233736
-6.98152e-07
0.000233846
-6.89728e-07
0.000233955
-6.8554e-07
0.000234064
-6.85573e-07
0.000234174
-6.89837e-07
0.000234285
-6.98374e-07
0.000234399
-7.11241e-07
0.000234515
-7.28531e-07
0.000234634
-7.50369e-07
0.000234758
-7.76898e-07
0.000234886
-8.08304e-07
0.000235021
-8.44794e-07
0.000235162
-8.86616e-07
0.00023531
-9.3404e-07
0.000235467
-9.87383e-07
0.000235634
-1.047e-06
0.000235811
-1.11329e-06
0.000235999
-1.18669e-06
0.000236201
-1.26769e-06
0.000236416
-1.35685e-06
0.000236647
-1.45474e-06
0.000236895
-1.56205e-06
0.000237161
-1.6795e-06
0.000237448
-1.80789e-06
0.000237756
-1.9481e-06
0.000238089
-2.10111e-06
0.000238448
-2.26796e-06
0.000238836
-2.44985e-06
0.000239255
-2.64804e-06
0.000239708
-2.86396e-06
0.000240198
-3.09917e-06
0.000240728
-3.35537e-06
0.000241301
-3.63445e-06
0.000241923
-3.93848e-06
0.000242596
-4.26976e-06
0.000243325
-4.63083e-06
0.000244115
-5.02448e-06
0.000244972
-5.45382e-06
0.000245902
-5.92228e-06
0.000246911
-6.43369e-06
0.000248007
-6.9923e-06
0.000249196
-7.60284e-06
0.000250488
-8.2706e-06
0.000251891
-9.0015e-06
0.000253417
-9.80218e-06
0.000255077
-1.06801e-05
0.000256882
-1.16437e-05
0.000258847
-1.27023e-05
0.000260987
-1.38669e-05
0.000263319
-1.51495e-05
0.000265861
-1.65642e-05
0.000268633
-1.81266e-05
0.000271659
-1.98551e-05
0.000274963
-2.17706e-05
0.000278574
-2.38971e-05
0.000282523
-2.62628e-05
0.000286846
-2.89002e-05
0.000291581
-3.18473e-05
0.000296771
-3.51487e-05
0.000302466
-3.8857e-05
0.000308719
-4.30345e-05
0.000315593
-4.77553e-05
0.000323154
-5.31081e-05
0.000331479
-5.91994e-05
0.000340651
-6.61582e-05
0.000350762
-7.41414e-05
0.000361914
-8.33404e-05
0.000374213
-9.39921e-05
0.000387769
-0.000106387
0.000402697
-0.000120891
0.000419086
-0.000137955
0.000437016
-0.000158157
0.000456483
-0.000182211
0.0004774
-0.000211038
0.000499456
-0.000245782
0.000522029
-0.00028791
0.000543898
-0.000339229
0.00056288
-0.000401975
0.000575149
-0.000478788
0.000573961
-0.000572512
0.000548588