/*--------------------------------*- C++ -*----------------------------------*\
  =========                 |
  \\      /  F ield         | OpenFOAM: The Open Source CFD Toolbox
   \\    /   O peration     | Website:  https://openfoam.org
    \\  /    A nd           | Version:  dev
     \\/     M anipulation  |
\*---------------------------------------------------------------------------*/
FoamFile
{
    version     2.0;
    format      ascii;
    class       volVectorField;
    location    "17";
    object      U;
}
// * * * * * * * * * * * * * * * * * * * * * * * * * * * * * * * * * * * * * //

dimensions      [0 1 -1 0 0 0 0];

internalField   nonuniform List<vector> 
8000
(
(0.0997634 -3.8071e-05 0)
(0.100116 -0.000250086 0)
(0.100114 -0.000533948 0)
(0.0998906 -9.89533e-05 0)
(0.0999342 -7.73365e-05 0)
(0.100846 -0.000804821 0)
(0.100984 -0.00203379 0)
(0.0989073 -0.000690008 0)
(0.100416 -0.000123771 0)
(0.102046 -0.00123643 0)
(0.102684 -0.00368078 0)
(0.0981529 -0.00164321 0)
(0.101147 -5.24543e-05 0)
(0.103573 -0.00119886 0)
(0.105076 -0.00470564 0)
(0.0985592 -0.00233663 0)
(0.101719 0.0001776 0)
(0.105119 -0.000360493 0)
(0.10772 -0.0043542 0)
(0.100564 -0.00219237 0)
(0.101709 0.000542849 0)
(0.106133 0.00144918 0)
(0.10997 -0.00213405 0)
(0.103983 -0.000145931 0)
(0.100502 0.00115692 0)
(0.105953 0.0040715 0)
(0.110884 0.00222552 0)
(0.107878 0.0044416 0)
(0.0974304 0.00203528 0)
(0.103932 0.00716717 0)
(0.109533 0.0083498 0)
(0.110201 0.0116966 0)
(0.0920941 0.00317991 0)
(0.0995142 0.0102585 0)
(0.105184 0.0151894 0)
(0.108944 0.0208836 0)
(0.0844882 0.00446209 0)
(0.0924513 0.0127296 0)
(0.0977093 0.0209786 0)
(0.102566 0.0298745 0)
(0.075174 0.00558863 0)
(0.0832527 0.014078 0)
(0.0878391 0.024217 0)
(0.0920081 0.0355886 0)
(0.0649733 0.00626368 0)
(0.0729285 0.0141568 0)
(0.0767398 0.0246472 0)
(0.0795737 0.0364294 0)
(0.0551187 0.00633846 0)
(0.0631673 0.0132366 0)
(0.0663247 0.0229217 0)
(0.0675776 0.0333481 0)
(0.0460842 0.00587346 0)
(0.0547119 0.0117813 0)
(0.057568 0.0200853 0)
(0.0578014 0.0285093 0)
(0.0380749 0.00495636 0)
(0.0476131 0.0100778 0)
(0.0504605 0.0169293 0)
(0.0503637 0.0235834 0)
(0.0315639 0.00364574 0)
(0.0417248 0.00812557 0)
(0.0446475 0.0137417 0)
(0.0445966 0.0191518 0)
(0.0268894 0.00223768 0)
(0.0368393 0.00599564 0)
(0.0397532 0.0106424 0)
(0.0398305 0.0152506 0)
(0.0238848 0.00118195 0)
(0.0328658 0.00411827 0)
(0.0355562 0.00797629 0)
(0.0356779 0.0120204 0)
(0.0219875 0.000639389 0)
(0.0296874 0.00288552 0)
(0.0319404 0.00607604 0)
(0.0319944 0.00961647 0)
(0.0206211 0.00046662 0)
(0.0271224 0.00229052 0)
(0.0288617 0.00492551 0)
(0.0287935 0.00796086 0)
(0.0194271 0.000458059 0)
(0.0249979 0.0020627 0)
(0.0262805 0.00424882 0)
(0.0260933 0.0068048 0)
(0.0182718 0.00047169 0)
(0.0231832 0.00194417 0)
(0.0241169 0.00377663 0)
(0.0238434 0.00592428 0)
(0.0171517 0.000461512 0)
(0.0215991 0.00181828 0)
(0.0222827 0.00337596 0)
(0.021961 0.00519545 0)
(0.0160976 0.000433504 0)
(0.0202052 0.00167055 0)
(0.0207106 0.0030119 0)
(0.0203721 0.00456621 0)
(0.0151272 0.000398877 0)
(0.0189759 0.00151471 0)
(0.0193536 0.00268034 0)
(0.01902 0.00401461 0)
(0.0142456 0.000362896 0)
(0.017891 0.00136121 0)
(0.0181779 0.00237975 0)
(0.0178621 0.00352785 0)
(0.0134516 0.000327592 0)
(0.0169343 0.00121495 0)
(0.0171575 0.00210742 0)
(0.0168653 0.00309676 0)
(0.0127414 0.000293861 0)
(0.016092 0.00107804 0)
(0.0162712 0.00186052 0)
(0.0160042 0.00271367 0)
(0.01211 0.000262091 0)
(0.0153527 0.000951248 0)
(0.0155017 0.00163643 0)
(0.0152588 0.00237192 0)
(0.0115518 0.000232318 0)
(0.014706 0.000834363 0)
(0.0148345 0.0014325 0)
(0.0146137 0.00206553 0)
(0.0110622 0.0002046 0)
(0.014144 0.000727028 0)
(0.0142582 0.00124655 0)
(0.0140566 0.00178951 0)
(0.0106345 0.000178161 0)
(0.0136581 0.000627794 0)
(0.0137625 0.00107597 0)
(0.0135776 0.00153934 0)
(0.0102672 0.000153547 0)
(0.0132426 0.000536581 0)
(0.0133394 0.000919436 0)
(0.0131687 0.00131167 0)
(0.00995359 0.000130987 0)
(0.0128904 0.000453303 0)
(0.0129819 0.000776377 0)
(0.0128235 0.00110429 0)
(0.00968938 0.000109872 0)
(0.0125959 0.000376589 0)
(0.0126842 0.00064458 0)
(0.0125369 0.000913764 0)
(0.00947218 8.96228e-05 0)
(0.0123549 0.000304749 0)
(0.0124417 0.00052141 0)
(0.0123046 0.00073664 0)
(0.00929939 7.02471e-05 0)
(0.012164 0.000237147 0)
(0.0122503 0.000405755 0)
(0.0121225 0.000571324 0)
(0.00916827 5.19814e-05 0)
(0.0120196 0.000173963 0)
(0.0121061 0.000297649 0)
(0.0119869 0.000417379 0)
(0.00907608 3.49284e-05 0)
(0.0119186 0.000115266 0)
(0.0120058 0.000197019 0)
(0.0118947 0.000274215 0)
(0.00902021 1.90308e-05 0)
(0.0118577 6.0773e-05 0)
(0.0119464 0.000103368 0)
(0.011843 0.000140999 0)
(0.00899801 4.25369e-06 0)
(0.0118342 9.91101e-06 0)
(0.011925 1.60599e-05 0)
(0.0118291 1.70075e-05 0)
(0.00900725 -9.99941e-06 0)
(0.0118457 -3.75791e-05 0)
(0.0119389 -6.51443e-05 0)
(0.0118502 -9.81068e-05 0)
(0.009046 -2.29795e-05 0)
(0.0118895 -8.11634e-05 0)
(0.0119854 -0.00013989 0)
(0.0119038 -0.000204242 0)
(0.00911154 -3.49957e-05 0)
(0.0119629 -0.000121278 0)
(0.0120619 -0.000208587 0)
(0.0119874 -0.000301758 0)
(0.00920185 -4.60712e-05 0)
(0.0120635 -0.000158008 0)
(0.0121659 -0.000271408 0)
(0.0120983 -0.000390879 0)
(0.00931477 -5.61947e-05 0)
(0.0121887 -0.00019137 0)
(0.0122948 -0.000328396 0)
(0.0122342 -0.000471663 0)
(0.00944817 -6.53567e-05 0)
(0.0123362 -0.000221377 0)
(0.0124462 -0.000379587 0)
(0.0123925 -0.000544161 0)
(0.00959992 -7.35538e-05 0)
(0.0125035 -0.000248058 0)
(0.0126176 -0.000425035 0)
(0.0125707 -0.000608462 0)
(0.0097679 -8.07893e-05 0)
(0.0126882 -0.000271454 0)
(0.0128066 -0.000464828 0)
(0.0127665 -0.000664693 0)
(0.00995004 -8.70711e-05 0)
(0.0128881 -0.000291629 0)
(0.0130109 -0.000499083 0)
(0.0129773 -0.000713021 0)
(0.0101443 -9.2414e-05 0)
(0.0131009 -0.000308661 0)
(0.0132281 -0.000527945 0)
(0.0132009 -0.000753652 0)
(0.0103486 -9.6841e-05 0)
(0.0133243 -0.000322651 0)
(0.013456 -0.000551592 0)
(0.013435 -0.000786839 0)
(0.0105611 -0.000100383 0)
(0.0135563 -0.000333714 0)
(0.0136924 -0.000570233 0)
(0.0136773 -0.000812886 0)
(0.01078 -0.000103079 0)
(0.0137949 -0.000341991 0)
(0.0139353 -0.000584109 0)
(0.0139258 -0.000832144 0)
(0.0110034 -0.00010497 0)
(0.0140381 -0.000347638 0)
(0.0141827 -0.000593494 0)
(0.0141785 -0.00084501 0)
(0.0112297 -0.000106107 0)
(0.0142842 -0.000350829 0)
(0.0144328 -0.000598686 0)
(0.0144336 -0.000851916 0)
(0.0114575 -0.000106543 0)
(0.0145315 -0.000351746 0)
(0.014684 -0.000600003 0)
(0.0146893 -0.000853317 0)
(0.0116852 -0.000106333 0)
(0.0147785 -0.000350582 0)
(0.0149347 -0.000597778 0)
(0.0149441 -0.000849696 0)
(0.0119116 -0.000105539 0)
(0.0150238 -0.000347536 0)
(0.0151834 -0.000592359 0)
(0.0151965 -0.000841555 0)
(0.0121355 -0.000104222 0)
(0.0152662 -0.000342813 0)
(0.015429 -0.000584094 0)
(0.0154454 -0.000829391 0)
(0.0123559 -0.000102441 0)
(0.0155046 -0.000336612 0)
(0.0156704 -0.000573326 0)
(0.0156896 -0.000813699 0)
(0.012572 -0.000100258 0)
(0.015738 -0.000329131 0)
(0.0159065 -0.000560392 0)
(0.0159282 -0.00079496 0)
(0.0127828 -9.7731e-05 0)
(0.0159656 -0.00032056 0)
(0.0161366 -0.00054562 0)
(0.0161605 -0.000773642 0)
(0.0129879 -9.49154e-05 0)
(0.0161868 -0.000311082 0)
(0.01636 -0.000529318 0)
(0.0163856 -0.000750187 0)
(0.0131865 -9.18648e-05 0)
(0.016401 -0.000300868 0)
(0.0165762 -0.00051178 0)
(0.0166032 -0.000725014 0)
(0.0133784 -8.86279e-05 0)
(0.0166077 -0.000290077 0)
(0.0167847 -0.00049328 0)
(0.0168127 -0.000698509 0)
(0.0135631 -8.52512e-05 0)
(0.0168066 -0.000278858 0)
(0.0169851 -0.000474067 0)
(0.017014 -0.000671029 0)
(0.0137405 -8.1776e-05 0)
(0.0169975 -0.000267345 0)
(0.0171774 -0.00045437 0)
(0.0172067 -0.000642896 0)
(0.0139104 -7.82401e-05 0)
(0.0171802 -0.000255659 0)
(0.0173612 -0.000434394 0)
(0.0173909 -0.000614401 0)
(0.0140727 -7.46769e-05 0)
(0.0173546 -0.000243907 0)
(0.0175367 -0.000414322 0)
(0.0175664 -0.000585799 0)
(0.0142273 -7.11165e-05 0)
(0.0175207 -0.000232184 0)
(0.0177037 -0.000394315 0)
(0.0177333 -0.000557318 0)
(0.0143744 -6.75849e-05 0)
(0.0176787 -0.000220572 0)
(0.0178624 -0.000374511 0)
(0.0178917 -0.000529151 0)
(0.014514 -6.41046e-05 0)
(0.0178285 -0.000209141 0)
(0.0180128 -0.000355028 0)
(0.0180417 -0.000501463 0)
(0.0146463 -6.0694e-05 0)
(0.0179704 -0.000197952 0)
(0.0181552 -0.000335966 0)
(0.0181836 -0.000474396 0)
(0.0147714 -5.73686e-05 0)
(0.0181046 -0.000187052 0)
(0.0182898 -0.000317407 0)
(0.0183176 -0.000448062 0)
(0.0148895 -5.41408e-05 0)
(0.0182313 -0.000176481 0)
(0.0184168 -0.000299418 0)
(0.0184439 -0.000422553 0)
(0.0150009 -5.10208e-05 0)
(0.0183506 -0.000166273 0)
(0.0185364 -0.000282051 0)
(0.0185628 -0.000397941 0)
(0.0151058 -4.80158e-05 0)
(0.018463 -0.000156449 0)
(0.0186489 -0.000265343 0)
(0.0186746 -0.000374277 0)
(0.0152044 -4.51319e-05 0)
(0.0185687 -0.000147025 0)
(0.0187547 -0.000249323 0)
(0.0187795 -0.000351601 0)
(0.0152971 -4.23723e-05 0)
(0.0186679 -0.000138014 0)
(0.018854 -0.000234009 0)
(0.018878 -0.000329935 0)
(0.015384 -3.97391e-05 0)
(0.018761 -0.000129422 0)
(0.018947 -0.000219411 0)
(0.0189702 -0.000309291 0)
(0.0154655 -3.72336e-05 0)
(0.0188482 -0.000121248 0)
(0.0190342 -0.00020553 0)
(0.0190566 -0.000289668 0)
(0.0155418 -3.48549e-05 0)
(0.0189298 -0.000113492 0)
(0.0191159 -0.00019236 0)
(0.0191374 -0.000271059 0)
(0.0156132 -3.26014e-05 0)
(0.0190062 -0.000106147 0)
(0.0191922 -0.000179893 0)
(0.0192129 -0.000253449 0)
(0.0156799 -3.04713e-05 0)
(0.0190776 -9.92071e-05 0)
(0.0192635 -0.000168114 0)
(0.0192834 -0.000236818 0)
(0.0157423 -2.84613e-05 0)
(0.0191443 -9.26606e-05 0)
(0.0193302 -0.000157007 0)
(0.0193493 -0.000221139 0)
(0.0158005 -2.65682e-05 0)
(0.0192066 -8.64969e-05 0)
(0.0193923 -0.00014655 0)
(0.0194107 -0.000206383 0)
(0.0158548 -2.47881e-05 0)
(0.0192648 -8.07028e-05 0)
(0.0194503 -0.000136722 0)
(0.019468 -0.000192518 0)
(0.0159055 -2.31168e-05 0)
(0.019319 -7.5264e-05 0)
(0.0195044 -0.000127499 0)
(0.0195214 -0.00017951 0)
(0.0159528 -2.15501e-05 0)
(0.0193695 -7.01667e-05 0)
(0.0195549 -0.000118856 0)
(0.0195712 -0.000167323 0)
(0.0159969 -2.00831e-05 0)
(0.0194166 -6.53957e-05 0)
(0.0196019 -0.000110768 0)
(0.0196175 -0.000155921 0)
(0.0160379 -1.87119e-05 0)
(0.0194605 -6.09364e-05 0)
(0.0196456 -0.00010321 0)
(0.0196607 -0.000145267 0)
(0.0160762 -1.74314e-05 0)
(0.0195014 -5.67738e-05 0)
(0.0196864 -9.61547e-05 0)
(0.0197009 -0.000135326 0)
(0.0161118 -1.62375e-05 0)
(0.0195396 -5.2893e-05 0)
(0.0197244 -8.95786e-05 0)
(0.0197383 -0.000126061 0)
(0.016145 -1.51251e-05 0)
(0.0195751 -4.92796e-05 0)
(0.0197598 -8.34567e-05 0)
(0.0197732 -0.000117437 0)
(0.016176 -1.40909e-05 0)
(0.0196081 -4.59197e-05 0)
(0.0197927 -7.77645e-05 0)
(0.0198056 -0.00010942 0)
(0.0162048 -1.31299e-05 0)
(0.019639 -4.27997e-05 0)
(0.0198235 -7.24788e-05 0)
(0.0198359 -0.000101975 0)
(0.0162317 -1.22384e-05 0)
(0.0196677 -3.99059e-05 0)
(0.0198521 -6.75772e-05 0)
(0.0198641 -9.50739e-05 0)
(0.0162567 -1.14129e-05 0)
(0.0196945 -3.72265e-05 0)
(0.0198788 -6.30385e-05 0)
(0.0198903 -8.86839e-05 0)
(0.0162801 -1.06492e-05 0)
(0.0197195 -3.47491e-05 0)
(0.0199037 -5.88425e-05 0)
(0.0199149 -8.27767e-05 0)
(0.016302 -9.94376e-06 0)
(0.0197429 -3.24623e-05 0)
(0.0199269 -5.49701e-05 0)
(0.0199377 -7.73252e-05 0)
(0.0163224 -9.29349e-06 0)
(0.0197647 -3.03554e-05 0)
(0.0199487 -5.14023e-05 0)
(0.0199591 -7.23035e-05 0)
(0.0163414 -8.6953e-06 0)
(0.0197852 -2.84182e-05 0)
(0.019969 -4.81224e-05 0)
(0.0199791 -6.76876e-05 0)
(0.0163593 -8.14626e-06 0)
(0.0198043 -2.66417e-05 0)
(0.019988 -4.51146e-05 0)
(0.0199978 -6.34544e-05 0)
(0.0163761 -7.64388e-06 0)
(0.0198223 -2.50168e-05 0)
(0.0200059 -4.23635e-05 0)
(0.0200154 -5.95834e-05 0)
(0.0163919 -7.18537e-06 0)
(0.0198392 -2.35354e-05 0)
(0.0200227 -3.98559e-05 0)
(0.0200319 -5.60544e-05 0)
(0.0164067 -6.76817e-06 0)
(0.0198551 -2.21899e-05 0)
(0.0200385 -3.75784e-05 0)
(0.0200475 -5.28494e-05 0)
(0.0164207 -6.39028e-06 0)
(0.0198701 -2.09734e-05 0)
(0.0200534 -3.55194e-05 0)
(0.0200621 -4.9952e-05 0)
(0.016434 -6.04992e-06 0)
(0.0198843 -1.98796e-05 0)
(0.0200676 -3.36681e-05 0)
(0.020076 -4.7347e-05 0)
(0.0164465 -5.74554e-06 0)
(0.0198978 -1.8903e-05 0)
(0.020081 -3.20152e-05 0)
(0.0200892 -4.50208e-05 0)
(0.0164585 -5.47534e-06 0)
(0.0199107 -1.80385e-05 0)
(0.0200937 -3.05517e-05 0)
(0.0201017 -4.29608e-05 0)
(0.01647 -5.23786e-06 0)
(0.019923 -1.72812e-05 0)
(0.020106 -2.92696e-05 0)
(0.0201137 -4.11563e-05 0)
(0.016481 -5.03145e-06 0)
(0.0199348 -1.6627e-05 0)
(0.0201177 -2.81628e-05 0)
(0.0201252 -3.95982e-05 0)
(0.0164915 -4.85547e-06 0)
(0.0199462 -1.60728e-05 0)
(0.020129 -2.72247e-05 0)
(0.0201363 -3.82776e-05 0)
(0.0165018 -4.7087e-06 0)
(0.0199572 -1.56155e-05 0)
(0.0201399 -2.6451e-05 0)
(0.0201471 -3.71879e-05 0)
(0.0165118 -4.59072e-06 0)
(0.019968 -1.52529e-05 0)
(0.0201506 -2.58375e-05 0)
(0.0201576 -3.63235e-05 0)
(0.0165216 -4.50152e-06 0)
(0.0199786 -1.49837e-05 0)
(0.020161 -2.53813e-05 0)
(0.0201678 -3.56803e-05 0)
(0.0165312 -4.43984e-06 0)
(0.019989 -1.48058e-05 0)
(0.0201713 -2.50803e-05 0)
(0.0201779 -3.52554e-05 0)
(0.0165408 -4.40515e-06 0)
(0.0199993 -1.4719e-05 0)
(0.0201815 -2.49335e-05 0)
(0.0201879 -3.50468e-05 0)
(0.0165503 -4.39786e-06 0)
(0.0200096 -1.47231e-05 0)
(0.0201917 -2.49403e-05 0)
(0.0201979 -3.50537e-05 0)
(0.0165598 -4.41758e-06 0)
(0.0200199 -1.48182e-05 0)
(0.0202019 -2.51013e-05 0)
(0.0202079 -3.52772e-05 0)
(0.0165695 -4.46499e-06 0)
(0.0200303 -1.50055e-05 0)
(0.0202122 -2.54177e-05 0)
(0.020218 -3.57187e-05 0)
(0.0165792 -4.54076e-06 0)
(0.0200409 -1.5286e-05 0)
(0.0202226 -2.58917e-05 0)
(0.0202283 -3.63824e-05 0)
(0.0165892 -4.64525e-06 0)
(0.0200517 -1.5662e-05 0)
(0.0202333 -2.65273e-05 0)
(0.0202388 -3.72726e-05 0)
(0.0165995 -4.77893e-06 0)
(0.0200629 -1.61361e-05 0)
(0.0202443 -2.73286e-05 0)
(0.0202495 -3.83953e-05 0)
(0.0166101 -4.9423e-06 0)
(0.0200744 -1.67112e-05 0)
(0.0202556 -2.83012e-05 0)
(0.0202606 -3.97586e-05 0)
(0.0166211 -5.13732e-06 0)
(0.0200863 -1.73916e-05 0)
(0.0202673 -2.94518e-05 0)
(0.0202721 -4.13717e-05 0)
(0.0166326 -5.3647e-06 0)
(0.0200987 -1.8182e-05 0)
(0.0202796 -3.07885e-05 0)
(0.0202842 -4.32455e-05 0)
(0.0166446 -5.62662e-06 0)
(0.0201118 -1.90876e-05 0)
(0.0202924 -3.23195e-05 0)
(0.0202967 -4.53924e-05 0)
(0.0166572 -5.92487e-06 0)
(0.0201255 -2.01145e-05 0)
(0.0203059 -3.40556e-05 0)
(0.02031 -4.7827e-05 0)
(0.0166705 -6.261e-06 0)
(0.02014 -2.12696e-05 0)
(0.0203202 -3.60082e-05 0)
(0.0203239 -5.05656e-05 0)
(0.0166847 -6.63736e-06 0)
(0.0201554 -2.25605e-05 0)
(0.0203352 -3.8191e-05 0)
(0.0203387 -5.36263e-05 0)
(0.0166997 -7.05648e-06 0)
(0.0201717 -2.39962e-05 0)
(0.0203513 -4.06181e-05 0)
(0.0203544 -5.70297e-05 0)
(0.0167157 -7.52141e-06 0)
(0.020189 -2.55866e-05 0)
(0.0203683 -4.33061e-05 0)
(0.0203711 -6.07985e-05 0)
(0.0167327 -8.03525e-06 0)
(0.0202075 -2.73422e-05 0)
(0.0203865 -4.62733e-05 0)
(0.0203889 -6.4958e-05 0)
(0.016751 -8.60199e-06 0)
(0.0202274 -2.92751e-05 0)
(0.0204059 -4.9539e-05 0)
(0.020408 -6.95363e-05 0)
(0.0167705 -9.22563e-06 0)
(0.0202486 -3.13984e-05 0)
(0.0204268 -5.3126e-05 0)
(0.0204284 -7.45648e-05 0)
(0.0167915 -9.91024e-06 0)
(0.0202714 -3.37267e-05 0)
(0.0204491 -5.70588e-05 0)
(0.0204503 -8.00778e-05 0)
(0.016814 -1.06603e-05 0)
(0.0202959 -3.62759e-05 0)
(0.0204731 -6.13647e-05 0)
(0.0204739 -8.61129e-05 0)
(0.0168383 -1.14813e-05 0)
(0.0203222 -3.90639e-05 0)
(0.020499 -6.6073e-05 0)
(0.0204992 -9.27119e-05 0)
(0.0168645 -1.23788e-05 0)
(0.0203506 -4.21102e-05 0)
(0.0205268 -7.1217e-05 0)
(0.0205265 -9.99203e-05 0)
(0.0168927 -1.336e-05 0)
(0.0203812 -4.54366e-05 0)
(0.0205568 -7.68328e-05 0)
(0.0205558 -0.000107789 0)
(0.0169232 -1.44316e-05 0)
(0.0204142 -4.9067e-05 0)
(0.0205892 -8.29601e-05 0)
(0.0205876 -0.000116373 0)
(0.0169561 -1.56018e-05 0)
(0.0204499 -5.30272e-05 0)
(0.0206242 -8.96428e-05 0)
(0.0206218 -0.000125733 0)
(0.0169917 -1.68792e-05 0)
(0.0204885 -5.73461e-05 0)
(0.0206619 -9.69287e-05 0)
(0.0206588 -0.000135936 0)
(0.0170302 -1.82733e-05 0)
(0.0205302 -6.20552e-05 0)
(0.0207028 -0.000104871 0)
(0.0206988 -0.000147056 0)
(0.0170719 -1.97948e-05 0)
(0.0205753 -6.71895e-05 0)
(0.020747 -0.000113528 0)
(0.020742 -0.000159176 0)
(0.017117 -2.14555e-05 0)
(0.0206241 -7.27879e-05 0)
(0.0207948 -0.000122965 0)
(0.0207888 -0.000172383 0)
(0.017166 -2.32686e-05 0)
(0.020677 -7.88933e-05 0)
(0.0208466 -0.000133253 0)
(0.0208395 -0.000186778 0)
(0.017219 -2.52486e-05 0)
(0.0207344 -8.55525e-05 0)
(0.0209027 -0.00014447 0)
(0.0208945 -0.000202469 0)
(0.0172766 -2.74116e-05 0)
(0.0207965 -9.28179e-05 0)
(0.0209636 -0.000156703 0)
(0.020954 -0.000219578 0)
(0.0173391 -2.97753e-05 0)
(0.020864 -0.000100748 0)
(0.0210295 -0.000170049 0)
(0.0210185 -0.000238237 0)
(0.0174069 -3.23595e-05 0)
(0.0209371 -0.000109406 0)
(0.0211011 -0.000184615 0)
(0.0210885 -0.000258595 0)
(0.0174807 -3.51869e-05 0)
(0.0210166 -0.000118864 0)
(0.0211788 -0.00020052 0)
(0.0211644 -0.000280817 0)
(0.0175608 -3.82818e-05 0)
(0.0211028 -0.000129203 0)
(0.0212631 -0.000217896 0)
(0.0212468 -0.000305085 0)
(0.017648 -4.1672e-05 0)
(0.0211966 -0.000140511 0)
(0.0213547 -0.00023689 0)
(0.0213363 -0.000331603 0)
(0.0177428 -4.53899e-05 0)
(0.0212985 -0.00015289 0)
(0.0214543 -0.000257667 0)
(0.0214335 -0.000360598 0)
(0.0178461 -4.94704e-05 0)
(0.0214093 -0.000166449 0)
(0.0215625 -0.000280413 0)
(0.0215392 -0.000392324 0)
(0.0179585 -5.39534e-05 0)
(0.0215299 -0.000181316 0)
(0.0216802 -0.000305332 0)
(0.0216541 -0.000427065 0)
(0.0180812 -5.88842e-05 0)
(0.0216611 -0.000197631 0)
(0.0218083 -0.000332659 0)
(0.0217791 -0.000465142 0)
(0.0182149 -6.43135e-05 0)
(0.0218041 -0.000215554 0)
(0.0219478 -0.000362654 0)
(0.0219151 -0.000506914 0)
(0.0183609 -7.02992e-05 0)
(0.02196 -0.000235267 0)
(0.0220998 -0.000395614 0)
(0.0220632 -0.000552785 0)
(0.0185204 -7.69077e-05 0)
(0.02213 -0.000256973 0)
(0.0222654 -0.000431875 0)
(0.0222246 -0.000603216 0)
(0.0186947 -8.4215e-05 0)
(0.0223155 -0.000280908 0)
(0.0224462 -0.000471817 0)
(0.0224005 -0.000658727 0)
(0.0188855 -9.23087e-05 0)
(0.0225182 -0.00030734 0)
(0.0226434 -0.000515877 0)
(0.0225924 -0.000719912 0)
(0.0190944 -0.00010129 0)
(0.0227397 -0.000336573 0)
(0.0228589 -0.00056455 0)
(0.0228018 -0.000787446 0)
(0.0193235 -0.000111274 0)
(0.0229821 -0.000368962 0)
(0.0230944 -0.000618409 0)
(0.0230307 -0.000862106 0)
(0.0195749 -0.000122396 0)
(0.0232475 -0.000404913 0)
(0.0233522 -0.000678108 0)
(0.0232808 -0.000944781 0)
(0.0198512 -0.000134814 0)
(0.0235384 -0.000444896 0)
(0.0236345 -0.000744406 0)
(0.0235546 -0.0010365 0)
(0.0201552 -0.000148711 0)
(0.0238576 -0.00048946 0)
(0.0239441 -0.000818185 0)
(0.0238544 -0.00113845 0)
(0.0204902 -0.000164303 0)
(0.0242084 -0.000539248 0)
(0.0242838 -0.000900468 0)
(0.0241831 -0.00125203 0)
(0.0208598 -0.000181846 0)
(0.0245943 -0.000595018 0)
(0.0246572 -0.000992453 0)
(0.0245439 -0.00137884 0)
(0.0212684 -0.000201643 0)
(0.0250195 -0.000657653 0)
(0.0250681 -0.00109556 0)
(0.0249403 -0.00152079 0)
(0.0217208 -0.000224059 0)
(0.0254886 -0.000728198 0)
(0.0255209 -0.00121147 0)
(0.0253765 -0.00168012 0)
(0.0222228 -0.000249531 0)
(0.0260072 -0.000807901 0)
(0.0260207 -0.00134218 0)
(0.0258571 -0.00185947 0)
(0.022781 -0.000278584 0)
(0.0265815 -0.000898263 0)
(0.0265733 -0.00149007 0)
(0.0263875 -0.00206203 0)
(0.0234031 -0.000311856 0)
(0.0272188 -0.00100109 0)
(0.0271855 -0.00165801 0)
(0.0269737 -0.00229158 0)
(0.0240983 -0.000350127 0)
(0.0279276 -0.00111859 0)
(0.027865 -0.00184948 0)
(0.0276227 -0.00255272 0)
(0.0248772 -0.000394343 0)
(0.0287179 -0.00125343 0)
(0.0286211 -0.00206872 0)
(0.0283429 -0.00285102 0)
(0.0257527 -0.000445733 0)
(0.0296015 -0.00140897 0)
(0.0294645 -0.00232096 0)
(0.0291435 -0.00319331 0)
(0.0267401 -0.000505642 0)
(0.0305925 -0.00158918 0)
(0.0304079 -0.00261268 0)
(0.0300357 -0.00358802 0)
(0.027858 -0.000576295 0)
(0.0317076 -0.00179957 0)
(0.0314664 -0.00295195 0)
(0.0310324 -0.00404566 0)
(0.0291284 -0.000659168 0)
(0.0329675 -0.00204598 0)
(0.032658 -0.00334899 0)
(0.0321489 -0.00457939 0)
(0.0305796 -0.000759116 0)
(0.0343964 -0.00233839 0)
(0.0340047 -0.00381674 0)
(0.0334031 -0.005206 0)
(0.0322448 -0.000876838 0)
(0.0360254 -0.00268492 0)
(0.0355329 -0.00437228 0)
(0.0348166 -0.00594676 0)
(0.0341675 -0.00102241 0)
(0.0378919 -0.00310399 0)
(0.0372751 -0.00503744 0)
(0.0364148 -0.00682963 0)
(0.036401 -0.00119655 0)
(0.0400439 -0.00360952 0)
(0.0392715 -0.00584182 0)
(0.0382281 -0.00789073 0)
(0.0390154 -0.00141554 0)
(0.0425423 -0.00423315 0)
(0.0415722 -0.00682446 0)
(0.0402931 -0.00917857 0)
(0.0420998 -0.00168524 0)
(0.0454657 -0.00500459 0)
(0.0442405 -0.00803964 0)
(0.042653 -0.0107579 0)
(0.0457764 -0.00203102 0)
(0.0489171 -0.00598007 0)
(0.0473563 -0.00956174 0)
(0.0453596 -0.0127176 0)
(0.0501994 -0.00247223 0)
(0.0530343 -0.0072258 0)
(0.0510237 -0.0114972 0)
(0.0484734 -0.0151801 0)
(0.0556126 -0.00305129 0)
(0.0580048 -0.00884936 0)
(0.0553731 -0.0139981 0)
(0.0520633 -0.0183186 0)
(0.0622508 -0.00382721 0)
(0.0640849 -0.0110142 0)
(0.0605915 -0.0172895 0)
(0.0562084 -0.0223779 0)
(0.0708096 -0.00486958 0)
(0.071653 -0.0139197 0)
(0.0668734 -0.0217066 0)
(0.0609735 -0.0277264 0)
(0.081048 -0.00633912 0)
(0.0811667 -0.018036 0)
(0.0746884 -0.0277671 0)
(0.0664788 -0.0348712 0)
(0.0966505 -0.008464 0)
(0.0937168 -0.0236507 0)
(0.0840301 -0.0362548 0)
(0.0725234 -0.0447449 0)
(0.110593 -0.0109429 0)
(0.108857 -0.0316529 0)
(0.0971685 -0.0484142 0)
(0.0801122 -0.0583282 0)
(0.146685 -0.0165832 0)
(0.134657 -0.0448525 0)
(0.111543 -0.0665555 0)
(0.0851581 -0.0790205 0)
(0.158065 -0.0174678 0)
(0.152112 -0.0531833 0)
(0.135478 -0.0885795 0)
(0.104842 -0.106981 0)
(0.247133 -0.0343183 0)
(0.226214 -0.0987667 0)
(0.176985 -0.149314 0)
(0.102062 -0.169093 0)
(0.0065875 -0.00203082 0)
(0.0131824 -0.00557608 0)
(0.0231344 -0.00897284 0)
(0.0349532 -0.0116833 0)
(0.0473213 -0.0122755 0)
(0.0584643 -0.00954996 0)
(0.0682113 -0.00304136 0)
(0.0776032 0.00745725 0)
(0.0864051 0.0224083 0)
(0.0886132 0.0358665 0)
(0.0839641 0.0447463 0)
(0.074682 0.0476668 0)
(0.0641786 0.0442128 0)
(0.0546427 0.037196 0)
(0.0475846 0.0301849 0)
(0.0422442 0.0243449 0)
(0.0378221 0.0196211 0)
(0.033944 0.0158714 0)
(0.0304942 0.0130043 0)
(0.0274976 0.0108622 0)
(0.024971 0.00923581 0)
(0.0228684 0.00794746 0)
(0.0211148 0.00688565 0)
(0.0196391 0.00598946 0)
(0.018385 0.00522347 0)
(0.01731 0.00456323 0)
(0.0163825 0.00398936 0)
(0.0155789 0.00348635 0)
(0.0148815 0.00304186 0)
(0.0142764 0.00264594 0)
(0.0137528 0.0022907 0)
(0.013302 0.00196964 0)
(0.0129172 0.00167771 0)
(0.0125927 0.00141093 0)
(0.0123243 0.00116528 0)
(0.0121081 0.000937141 0)
(0.0119403 0.00072439 0)
(0.0118176 0.000526072 0)
(0.0117372 0.000341339 0)
(0.0116965 0.000169242 0)
(0.011693 9.02901e-06 0)
(0.0117243 -0.000139708 0)
(0.0117877 -0.000277055 0)
(0.0118809 -0.000403246 0)
(0.0120015 -0.000518536 0)
(0.0121469 -0.000622986 0)
(0.0123146 -0.000716664 0)
(0.0125021 -0.000799674 0)
(0.012707 -0.000872169 0)
(0.0129268 -0.00093435 0)
(0.0131591 -0.000986481 0)
(0.0134016 -0.0010289 0)
(0.0136519 -0.00106199 0)
(0.013908 -0.00108624 0)
(0.0141678 -0.00110215 0)
(0.0144295 -0.00111031 0)
(0.0146912 -0.00111132 0)
(0.0149514 -0.00110581 0)
(0.0152088 -0.00109446 0)
(0.015462 -0.00107791 0)
(0.0157099 -0.00105682 0)
(0.0159518 -0.00103182 0)
(0.0161867 -0.00100353 0)
(0.016414 -0.000972513 0)
(0.0166333 -0.000939325 0)
(0.0168442 -0.000904469 0)
(0.0170463 -0.000868406 0)
(0.0172396 -0.000831556 0)
(0.017424 -0.000794292 0)
(0.0175995 -0.000756946 0)
(0.0177661 -0.000719806 0)
(0.0179241 -0.00068312 0)
(0.0180735 -0.000647101 0)
(0.0182146 -0.000611923 0)
(0.0183476 -0.000577731 0)
(0.0184729 -0.000544639 0)
(0.0185907 -0.000512737 0)
(0.0187014 -0.000482088 0)
(0.0188052 -0.00045274 0)
(0.0189025 -0.000424716 0)
(0.0189935 -0.00039803 0)
(0.0190787 -0.00037268 0)
(0.0191584 -0.000348653 0)
(0.0192327 -0.000325927 0)
(0.0193022 -0.000304473 0)
(0.0193669 -0.000284257 0)
(0.0194273 -0.000265239 0)
(0.0194836 -0.000247376 0)
(0.019536 -0.000230623 0)
(0.0195848 -0.000214932 0)
(0.0196303 -0.000200257 0)
(0.0196726 -0.000186548 0)
(0.019712 -0.00017376 0)
(0.0197487 -0.000161844 0)
(0.0197828 -0.000150755 0)
(0.0198146 -0.000140448 0)
(0.0198442 -0.00013088 0)
(0.0198718 -0.000122011 0)
(0.0198975 -0.000113801 0)
(0.0199215 -0.000106212 0)
(0.0199438 -9.92096e-05 0)
(0.0199647 -9.27601e-05 0)
(0.0199843 -8.6832e-05 0)
(0.0200026 -8.13964e-05 0)
(0.0200197 -7.64259e-05 0)
(0.0200359 -7.18946e-05 0)
(0.020051 -6.778e-05 0)
(0.0200654 -6.40603e-05 0)
(0.0200789 -6.0716e-05 0)
(0.0200918 -5.77296e-05 0)
(0.020104 -5.50853e-05 0)
(0.0201157 -5.27689e-05 0)
(0.020127 -5.07681e-05 0)
(0.0201378 -4.90723e-05 0)
(0.0201483 -4.76726e-05 0)
(0.0201585 -4.65621e-05 0)
(0.0201685 -4.57349e-05 0)
(0.0201784 -4.51874e-05 0)
(0.0201881 -4.49169e-05 0)
(0.0201979 -4.49228e-05 0)
(0.0202076 -4.52063e-05 0)
(0.0202175 -4.57695e-05 0)
(0.0202275 -4.66172e-05 0)
(0.0202377 -4.77546e-05 0)
(0.0202482 -4.91902e-05 0)
(0.020259 -5.09339e-05 0)
(0.0202702 -5.29971e-05 0)
(0.0202819 -5.53941e-05 0)
(0.0202942 -5.8141e-05 0)
(0.0203071 -6.12557e-05 0)
(0.0203207 -6.47596e-05 0)
(0.0203351 -6.86752e-05 0)
(0.0203504 -7.30295e-05 0)
(0.0203667 -7.78511e-05 0)
(0.020384 -8.31727e-05 0)
(0.0204026 -8.90302e-05 0)
(0.0204225 -9.54626e-05 0)
(0.0204438 -0.000102514 0)
(0.0204668 -0.000110233 0)
(0.0204914 -0.000118672 0)
(0.020518 -0.00012789 0)
(0.0205466 -0.000137951 0)
(0.0205774 -0.000148925 0)
(0.0206108 -0.00016089 0)
(0.0206467 -0.000173931 0)
(0.0206857 -0.000188142 0)
(0.0207277 -0.000203627 0)
(0.0207733 -0.000220499 0)
(0.0208226 -0.000238884 0)
(0.0208759 -0.00025892 0)
(0.0209338 -0.00028076 0)
(0.0209964 -0.000304574 0)
(0.0210644 -0.00033055 0)
(0.0211381 -0.000358894 0)
(0.0212181 -0.000389838 0)
(0.021305 -0.000423638 0)
(0.0213992 -0.000460582 0)
(0.0215017 -0.000500988 0)
(0.021613 -0.000545216 0)
(0.021734 -0.000593664 0)
(0.0218656 -0.000646786 0)
(0.0220088 -0.000705087 0)
(0.0221647 -0.000769143 0)
(0.0223346 -0.000839605 0)
(0.0225197 -0.00091721 0)
(0.0227216 -0.0010028 0)
(0.0229419 -0.00109734 0)
(0.0231825 -0.00120193 0)
(0.0234454 -0.00131784 0)
(0.023733 -0.00144653 0)
(0.0240477 -0.00158972 0)
(0.0243926 -0.00174938 0)
(0.0247708 -0.00192783 0)
(0.0251861 -0.00212781 0)
(0.0256425 -0.00235254 0)
(0.0261448 -0.00260585 0)
(0.0266983 -0.00289231 0)
(0.0273091 -0.00321744 0)
(0.0279841 -0.00358786 0)
(0.0287311 -0.00401169 0)
(0.0295594 -0.00449884 0)
(0.0304791 -0.00506157 0)
(0.0315024 -0.00571512 0)
(0.0326427 -0.00647865 0)
(0.0339156 -0.00737639 0)
(0.0353388 -0.00843934 0)
(0.036932 -0.00970751 0)
(0.0387167 -0.011233 0)
(0.040716 -0.0130844 0)
(0.0429523 -0.0153531 0)
(0.0454448 -0.0181616 0)
(0.0482029 -0.0216766 0)
(0.0512148 -0.0261256 0)
(0.054427 -0.0318273 0)
(0.0576959 -0.0392154 0)
(0.0607349 -0.0489521 0)
(0.062879 -0.0618112 0)
(0.0625349 -0.0797454 0)
(0.0599943 -0.10364 0)
(0.0178712 -0.144825 0)
(0.00471926 -0.0139615 0)
(0.0108188 -0.0183849 0)
(0.0195206 -0.0223903 0)
(0.0287734 -0.0255391 0)
(0.038293 -0.0260136 0)
(0.047967 -0.0220588 0)
(0.05608 -0.0143529 0)
(0.0610726 -0.00343617 0)
(0.0652759 0.0141571 0)
(0.0683815 0.0353886 0)
(0.0665239 0.0494129 0)
(0.0615904 0.0548728 0)
(0.0545397 0.0528192 0)
(0.0474411 0.0449095 0)
(0.0418957 0.0360259 0)
(0.0377425 0.0289304 0)
(0.0341059 0.0234949 0)
(0.0308227 0.0193071 0)
(0.0279035 0.0160349 0)
(0.0253804 0.0134576 0)
(0.0232522 0.0114089 0)
(0.0214674 0.00975734 0)
(0.0199606 0.00840369 0)
(0.018676 0.00727705 0)
(0.0175704 0.00632699 0)
(0.0166122 0.00551622 0)
(0.0157778 0.0048164 0)
(0.0150495 0.00420592 0)
(0.0144134 0.00366809 0)
(0.0138586 0.00318989 0)
(0.0133768 0.00276106 0)
(0.0129611 0.00237341 0)
(0.0126059 0.00202047 0)
(0.0123069 0.0016971 0)
(0.0120606 0.00139864 0)
(0.0118637 0.00112126 0)
(0.0117131 0.000862665 0)
(0.0116059 0.000621268 0)
(0.0115399 0.000395865 0)
(0.0115128 0.000185532 0)
(0.0115222 -1.04323e-05 0)
(0.011566 -0.00019249 0)
(0.0116417 -0.000360851 0)
(0.0117471 -0.000515608 0)
(0.0118797 -0.000656984 0)
(0.0120371 -0.000785034 0)
(0.0122167 -0.000899811 0)
(0.012416 -0.00100141 0)
(0.0126326 -0.00108998 0)
(0.0128638 -0.00116576 0)
(0.0131071 -0.00122907 0)
(0.0133602 -0.00128031 0)
(0.0136207 -0.00132 0)
(0.0138863 -0.00134871 0)
(0.0141551 -0.00136711 0)
(0.0144251 -0.00137591 0)
(0.0146944 -0.00137589 0)
(0.0149615 -0.00136786 0)
(0.015225 -0.00135264 0)
(0.0154836 -0.00133106 0)
(0.0157363 -0.00130394 0)
(0.0159821 -0.00127207 0)
(0.0162203 -0.00123621 0)
(0.0164503 -0.0011971 0)
(0.0166717 -0.00115539 0)
(0.0168842 -0.00111172 0)
(0.0170874 -0.00106665 0)
(0.0172813 -0.00102071 0)
(0.017466 -0.000974339 0)
(0.0176413 -0.000927953 0)
(0.0178076 -0.0008819 0)
(0.0179649 -0.00083648 0)
(0.0181134 -0.000791948 0)
(0.0182535 -0.000748512 0)
(0.0183853 -0.000706344 0)
(0.0185093 -0.000665578 0)
(0.0186257 -0.000626318 0)
(0.0187349 -0.000588637 0)
(0.0188373 -0.000552585 0)
(0.018933 -0.00051819 0)
(0.0190226 -0.000485463 0)
(0.0191063 -0.000454395 0)
(0.0191844 -0.000424969 0)
(0.0192574 -0.000397154 0)
(0.0193254 -0.000370912 0)
(0.0193888 -0.000346197 0)
(0.0194478 -0.000322958 0)
(0.0195029 -0.000301141 0)
(0.0195541 -0.000280688 0)
(0.0196017 -0.00026154 0)
(0.0196461 -0.000243638 0)
(0.0196874 -0.000226922 0)
(0.0197258 -0.000211332 0)
(0.0197615 -0.000196811 0)
(0.0197947 -0.0001833 0)
(0.0198256 -0.000170746 0)
(0.0198544 -0.000159096 0)
(0.0198813 -0.000148298 0)
(0.0199062 -0.000138305 0)
(0.0199295 -0.00012907 0)
(0.0199513 -0.000120549 0)
(0.0199716 -0.000112703 0)
(0.0199905 -0.000105492 0)
(0.0200083 -9.88808e-05 0)
(0.020025 -9.28358e-05 0)
(0.0200406 -8.7326e-05 0)
(0.0200553 -8.2323e-05 0)
(0.0200692 -7.78005e-05 0)
(0.0200824 -7.37349e-05 0)
(0.0200948 -7.01045e-05 0)
(0.0201067 -6.68898e-05 0)
(0.020118 -6.40738e-05 0)
(0.0201289 -6.16413e-05 0)
(0.0201394 -5.95792e-05 0)
(0.0201496 -5.78769e-05 0)
(0.0201595 -5.65258e-05 0)
(0.0201692 -5.55188e-05 0)
(0.0201787 -5.48513e-05 0)
(0.0201882 -5.45204e-05 0)
(0.0201976 -5.45254e-05 0)