/*--------------------------------*- C++ -*----------------------------------*\
  =========                 |
  \\      /  F ield         | OpenFOAM: The Open Source CFD Toolbox
   \\    /   O peration     | Website:  https://openfoam.org
    \\  /    A nd           | Version:  dev
     \\/     M anipulation  |
\*---------------------------------------------------------------------------*/
FoamFile
{
    version     2.0;
    format      ascii;
    class       surfaceScalarField;
    location    "13";
    object      phi;
}
// * * * * * * * * * * * * * * * * * * * * * * * * * * * * * * * * * * * * * //

dimensions      [1 0 -1 0 0 0 0];

internalField   nonuniform List<scalar> 
15760
(
1.35268e-06
0.00115727
-6.59502e-06
0.00116656
-2.11322e-05
0.00117314
0.00114908
-1.1614e-05
-1.98122e-06
0.00115925
-1.35213e-05
0.0011781
-3.7599e-05
0.00119722
0.00115729
-4.58062e-05
-1.20956e-06
0.00116046
-1.26403e-05
0.00118953
-4.11076e-05
0.00122569
0.00118231
-6.61288e-05
6.55301e-06
0.0011539
1.9353e-06
0.00119415
-1.96003e-05
0.00124722
0.00122528
-6.25672e-05
2.31755e-05
0.00113073
3.43969e-05
0.00118293
3.50107e-05
0.00124661
0.00126917
-8.88689e-06
4.77292e-05
0.001083
8.49068e-05
0.00114575
0.000123258
0.00120826
0.00127004
0.000122388
7.47567e-05
0.00100824
0.000144001
0.00107651
0.000225322
0.00112694
0.00119674
0.00029863
9.55667e-05
0.000912677
0.000190938
0.000981135
0.000302622
0.00101526
0.00107331
0.000426044
0.000105062
0.000807614
0.000211704
0.000874493
0.000334577
0.000892384
0.000926249
0.000481642
0.00010419
0.000703425
0.000208253
0.000770429
0.000322977
0.000777662
0.000784515
0.00046471
9.69156e-05
0.000606509
0.000191002
0.000676343
0.000287426
0.000681237
0.000669492
0.000402448
8.76369e-05
0.000518873
0.000169487
0.000594493
0.000248151
0.000602572
0.000583316
0.000334329
7.74346e-05
0.000441438
0.000147583
0.000524345
0.00021336
0.000536795
0.000516544
0.000280132
6.36005e-05
0.000377838
0.00012374
0.000464206
0.000181135
0.000479401
0.000460849
0.00023683
4.69584e-05
0.000330879
9.8221e-05
0.000412943
0.000149509
0.000428113
0.00041194
0.000198418
3.28152e-05
0.000298064
7.56537e-05
0.000370105
0.000120826
0.000382941
0.00036912
0.000163646
2.42152e-05
0.000273849
5.94639e-05
0.000334856
9.78778e-05
0.000344527
0.000332769
0.000134229
1.9973e-05
0.000253876
4.89053e-05
0.000305924
8.06765e-05
0.000312756
0.000302642
0.000110803
1.76252e-05
0.00023625
4.15306e-05
0.000282018
6.75923e-05
0.000286694
0.000277855
9.23793e-05
1.56992e-05
0.000220551
3.56518e-05
0.000262066
5.71568e-05
0.000265189
0.000257401
7.76115e-05
1.38261e-05
0.000206725
3.0625e-05
0.000245267
4.85276e-05
0.000247287
0.000240431
6.54969e-05
1.20416e-05
0.000194683
2.6261e-05
0.000231048
4.12511e-05
0.000232297
0.000226292
5.53903e-05
1.04012e-05
0.000184282
2.2463e-05
0.000218986
3.50436e-05
0.000219716
0.000214478
4.68578e-05
8.9211e-06
0.000175361
1.91467e-05
0.00020876
2.97028e-05
0.00020916
0.000204597
3.95833e-05
7.59698e-06
0.000167764
1.62393e-05
0.000200118
2.50753e-05
0.000200324
0.000196346
3.33265e-05
6.4172e-06
0.000161347
1.36807e-05
0.000192854
2.10419e-05
0.000192963
0.000189485
2.79029e-05
5.36738e-06
0.00015598
1.14214e-05
0.0001868
1.75083e-05
0.000186876
0.000183824
2.31692e-05
4.43275e-06
0.000151547
9.41987e-06
0.000181813
1.4398e-05
0.000181898
0.000179209
1.90136e-05
3.59969e-06
0.000147947
7.64179e-06
0.000177771
1.16499e-05
0.00017789
0.00017551
1.53484e-05
2.85553e-06
0.000145092
6.05813e-06
0.000174568
9.21403e-06
0.000174734
0.00017262
1.21039e-05
2.19062e-06
0.000142901
4.64681e-06
0.000172112
7.05195e-06
0.000172329
0.000170446
9.22616e-06
1.5863e-06
0.000141315
3.38329e-06
0.000170315
5.12994e-06
0.000170582
0.000168905
6.67139e-06
1.06059e-06
0.000140254
2.2772e-06
0.000169099
3.43688e-06
0.000169422
0.000167931
4.41053e-06
5.99933e-07
0.000139654
1.30704e-06
0.000168392
1.94469e-06
0.000168785
0.000167468
2.40726e-06
1.84375e-07
0.00013947
4.33091e-07
0.000168143
6.0641e-07
0.000168611
0.000167456
6.18723e-07
-1.97851e-07
0.000139668
-3.59919e-07
0.000168305
-5.92871e-07
0.000168844
0.000167835
-9.72156e-07
-5.32344e-07
0.0001402
-1.05633e-06
0.000168829
-1.64609e-06
0.000169434
0.000168558
-2.36866e-06
-8.17399e-07
0.000141017
-1.65446e-06
0.000169666
-2.55524e-06
0.000170335
0.000169581
-3.57869e-06
-1.06296e-06
0.00014208
-2.1694e-06
0.000170772
-3.33749e-06
0.000171503
0.000170863
-4.61905e-06
-1.27331e-06
0.000143354
-2.60969e-06
0.000172109
-4.00529e-06
0.000172899
0.000172364
-5.50579e-06
-1.45105e-06
0.000144805
-2.98116e-06
0.000173639
-4.56774e-06
0.000174485
0.000174047
-6.25112e-06
-1.59856e-06
0.000146403
-3.28905e-06
0.000175329
-5.03309e-06
0.000176229
0.00017588
-6.86623e-06
-1.71822e-06
0.000148121
-3.53846e-06
0.00017715
-5.40931e-06
0.0001781
0.000177833
-7.36186e-06
-1.81235e-06
0.000149934
-3.73445e-06
0.000179072
-5.70414e-06
0.00018007
0.000179877
-7.74819e-06
-1.88317e-06
0.000151817
-3.8818e-06
0.00018107
-5.92474e-06
0.000182113
0.000181987
-8.03483e-06
-1.93279e-06
0.00015375
-3.98495e-06
0.000183123
-6.07793e-06
0.000184206
0.00018414
-8.23125e-06
-1.96333e-06
0.000155713
-4.04826e-06
0.000185207
-6.1706e-06
0.000186328
0.000186316
-8.34678e-06
-1.97688e-06
0.00015769
-4.0761e-06
0.000187307
-6.20951e-06
0.000188461
0.000188497
-8.39043e-06
-1.97538e-06
0.000159665
-4.07263e-06
0.000189404
-6.20094e-06
0.00019059
0.000190667
-8.37078e-06
-1.96066e-06
0.000161626
-4.04184e-06
0.000191485
-6.15096e-06
0.000192699
0.000192812
-8.29609e-06
-1.93451e-06
0.00016356
-3.98748e-06
0.000193538
-6.06533e-06
0.000194777
0.000194921
-8.17399e-06
-1.8986e-06
0.000165459
-3.91297e-06
0.000195552
-5.9493e-06
0.000196813
0.000196983
-8.01156e-06
-1.85449e-06
0.000167313
-3.82149e-06
0.000197519
-5.80774e-06
0.000198799
0.000198991
-7.81541e-06
-1.8036e-06
0.000169117
-3.71604e-06
0.000199432
-5.64518e-06
0.000200728
0.000200937
-7.59161e-06
-1.74723e-06
0.000170864
-3.59931e-06
0.000201284
-5.46575e-06
0.000202595
0.000202817
-7.34571e-06
-1.68656e-06
0.000172551
-3.47378e-06
0.000203071
-5.27318e-06
0.000204394
0.000204627
-7.08273e-06
-1.62266e-06
0.000174173
-3.34166e-06
0.00020479
-5.07084e-06
0.000206123
0.000206363
-6.80716e-06
-1.5565e-06
0.00017573
-3.20493e-06
0.000206439
-4.86171e-06
0.00020778
0.000208024
-6.523e-06
-1.48893e-06
0.000177219
-3.06532e-06
0.000208015
-4.64845e-06
0.000209363
0.00020961
-6.23378e-06
-1.42066e-06
0.000178639
-2.92436e-06
0.000209519
-4.43335e-06
0.000210872
0.000211119
-5.94253e-06
-1.35235e-06
0.000179992
-2.78335e-06
0.00021095
-4.2184e-06
0.000212307
0.000212552
-5.6519e-06
-1.28455e-06
0.000181276
-2.64345e-06
0.000212309
-4.00528e-06
0.000213669
0.000213911
-5.36413e-06
-1.21771e-06
0.000182494
-2.5056e-06
0.000213596
-3.79543e-06
0.000214959
0.000215197
-5.0811e-06
-1.15223e-06
0.000183646
-2.37058e-06
0.000214815
-3.59004e-06
0.000216178
0.000216411
-4.80436e-06
-1.08842e-06
0.000184735
-2.23905e-06
0.000215965
-3.39006e-06
0.000217329
0.000217556
-4.53515e-06
-1.02652e-06
0.000185761
-2.1115e-06
0.00021705
-3.19626e-06
0.000218414
0.000218634
-4.27449e-06
-9.66746e-07
0.000186728
-1.98835e-06
0.000218072
-3.00923e-06
0.000219435
0.000219648
-4.02311e-06
-9.0923e-07
0.000187637
-1.86988e-06
0.000219033
-2.82941e-06
0.000220395
0.0002206
-3.78161e-06
-8.5408e-07
0.000188491
-1.75631e-06
0.000219935
-2.6571e-06
0.000221295
0.000221494
-3.55033e-06
-8.01357e-07
0.000189293
-1.64777e-06
0.000220781
-2.49248e-06
0.00022214
0.000222331
-3.32952e-06
-7.51102e-07
0.000190044
-1.54433e-06
0.000221575
-2.33565e-06
0.000222931
0.000223114
-3.11928e-06
-7.03321e-07
0.000190747
-1.446e-06
0.000222317
-2.18661e-06
0.000223672
0.000223847
-2.91959e-06
-6.57995e-07
0.000191405
-1.35274e-06
0.000223012
-2.04531e-06
0.000224365
0.000224532
-2.73036e-06
-6.15088e-07
0.00019202
-1.26448e-06
0.000223661
-1.91162e-06
0.000225012
0.000225172
-2.5514e-06
-5.74557e-07
0.000192595
-1.18111e-06
0.000224268
-1.78538e-06
0.000225616
0.000225769
-2.38247e-06
-5.36339e-07
0.000193131
-1.10251e-06
0.000224834
-1.66637e-06
0.00022618
0.000226326
-2.2233e-06
-5.00365e-07
0.000193631
-1.02852e-06
0.000225362
-1.55439e-06
0.000226706
0.000226845
-2.07356e-06
-4.66549e-07
0.000194098
-9.58975e-07
0.000225855
-1.44917e-06
0.000227196
0.000227329
-1.9329e-06
-4.34802e-07
0.000194533
-8.93713e-07
0.000226314
-1.35044e-06
0.000227653
0.00022778
-1.80097e-06
-4.05045e-07
0.000194938
-8.32553e-07
0.000226741
-1.25792e-06
0.000228078
0.000228199
-1.67736e-06
-3.7719e-07
0.000195315
-7.75302e-07
0.000227139
-1.17133e-06
0.000228474
0.000228589
-1.56172e-06
-3.51144e-07
0.000195666
-7.2177e-07
0.00022751
-1.09039e-06
0.000228843
0.000228953
-1.45364e-06
-3.26812e-07
0.000195993
-6.71776e-07
0.000227855
-1.01481e-06
0.000229186
0.000229291
-1.35275e-06
-3.04116e-07
0.000196297
-6.2514e-07
0.000228176
-9.44312e-07
0.000229505
0.000229605
-1.25866e-06
-2.82964e-07
0.00019658
-5.81687e-07
0.000228475
-8.78625e-07
0.000229802
0.000229897
-1.17102e-06
-2.63277e-07
0.000196843
-5.41232e-07
0.000228752
-8.17492e-07
0.000230078
0.000230169
-1.08945e-06
-2.44961e-07
0.000197088
-5.03611e-07
0.000229011
-7.60641e-07
0.000230335
0.000230422
-1.01362e-06
-2.27943e-07
0.000197316
-4.68657e-07
0.000229252
-7.07837e-07
0.000230574
0.000230658
-9.43196e-07
-2.12152e-07
0.000197528
-4.36227e-07
0.000229476
-6.58841e-07
0.000230797
0.000230877
-8.77855e-07
-1.97511e-07
0.000197726
-4.06163e-07
0.000229685
-6.13432e-07
0.000231004
0.000231081
-8.17296e-07
-1.83956e-07
0.00019791
-3.78331e-07
0.000229879
-5.71385e-07
0.000231197
0.00023127
-7.61243e-07
-1.7142e-07
0.000198081
-3.52593e-07
0.00023006
-5.32506e-07
0.000231377
0.000231447
-7.09428e-07
-1.59835e-07
0.000198241
-3.28818e-07
0.000230229
-4.96614e-07
0.000231545
0.000231612
-6.61582e-07
-1.49152e-07
0.00019839
-3.06903e-07
0.000230387
-4.63519e-07
0.000231702
0.000231766
-6.17467e-07
-1.39324e-07
0.000198529
-2.86725e-07
0.000230534
-4.33051e-07
0.000231848
0.00023191
-5.76867e-07
-1.3029e-07
0.00019866
-2.68186e-07
0.000230672
-4.05054e-07
0.000231985
0.000232045
-5.39575e-07
-1.22003e-07
0.000198782
-2.51185e-07
0.000230801
-3.79394e-07
0.000232113
0.000232171
-5.05386e-07
-1.14422e-07
0.000198896
-2.35641e-07
0.000230923
-3.55927e-07
0.000232233
0.000232289
-4.74126e-07
-1.07505e-07
0.000199003
-2.21471e-07
0.000231036
-3.34538e-07
0.000232346
0.0002324
-4.45615e-07
-1.01221e-07
0.000199105
-2.08592e-07
0.000231144
-3.15101e-07
0.000232453
0.000232504
-4.1972e-07
-9.55356e-08
0.0001992
-1.96935e-07
0.000231245
-2.97506e-07
0.000232553
0.000232603
-3.96297e-07
-9.04083e-08
0.000199291
-1.86445e-07
0.000231341
-2.81676e-07
0.000232649
0.000232697
-3.75211e-07
-8.58187e-08
0.000199376
-1.77057e-07
0.000231433
-2.67513e-07
0.000232739
0.000232786
-3.56354e-07
-8.174e-08
0.000199458
-1.68728e-07
0.00023152
-2.54948e-07
0.000232825
0.00023287
-3.39611e-07
-7.81568e-08
0.000199536
-1.61404e-07
0.000231603
-2.43898e-07
0.000232908
0.000232951
-3.24903e-07
-7.5037e-08
0.000199611
-1.55054e-07
0.000231683
-2.34313e-07
0.000232987
0.000233029
-3.12138e-07
-7.2374e-08
0.000199684
-1.49627e-07
0.00023176
-2.26137e-07
0.000233064
0.000233104
-3.01256e-07
-7.01484e-08
0.000199754
-1.45107e-07
0.000231835
-2.19324e-07
0.000233138
0.000233177
-2.92189e-07
-6.83522e-08
0.000199822
-1.41471e-07
0.000231908
-2.13842e-07
0.00023321
0.000233248
-2.84888e-07
-6.69715e-08
0.000199889
-1.3869e-07
0.00023198
-2.09662e-07
0.000233281
0.000233318
-2.79322e-07
-6.6003e-08
0.000199955
-1.36758e-07
0.000232051
-2.06758e-07
0.000233351
0.000233387
-2.75455e-07
-6.54385e-08
0.000200021
-1.35665e-07
0.000232121
-2.05111e-07
0.000233421
0.000233455
-2.73274e-07
-6.52736e-08
0.000200086
-1.35402e-07
0.000232191
-2.04729e-07
0.00023349
0.000233523
-2.7277e-07
-6.5515e-08
0.000200151
-1.35973e-07
0.000232261
-2.05606e-07
0.00023356
0.000233591
-2.73943e-07
-6.61575e-08
0.000200217
-1.37385e-07
0.000232333
-2.07752e-07
0.00023363
0.00023366
-2.76806e-07
-6.7216e-08
0.000200285
-1.39643e-07
0.000232405
-2.11181e-07
0.000233701
0.00023373
-2.81376e-07
-6.86931e-08
0.000200353
-1.42771e-07
0.000232479
-2.15918e-07
0.000233775
0.000233802
-2.87687e-07
-7.059e-08
0.000200424
-1.46791e-07
0.000232555
-2.2199e-07
0.00023385
0.000233876
-2.9578e-07
-7.29309e-08
0.000200497
-1.51713e-07
0.000232634
-2.29441e-07
0.000233928
0.000233952
-3.05714e-07
-7.57305e-08
0.000200573
-1.57587e-07
0.000232716
-2.38322e-07
0.000234008
0.000234031
-3.17541e-07
-7.90074e-08
0.000200652
-1.64441e-07
0.000232801
-2.48693e-07
0.000234092
0.000234114
-3.31357e-07
-8.27816e-08
0.000200734
-1.72327e-07
0.000232891
-2.60619e-07
0.000234181
0.000234201
-3.47243e-07
-8.70751e-08
0.000200821
-1.81296e-07
0.000232985
-2.74178e-07
0.000234274
0.000234292
-3.653e-07
-9.19192e-08
0.000200913
-1.91404e-07
0.000233085
-2.8946e-07
0.000234372
0.000234388
-3.85647e-07
-9.73344e-08
0.000201011
-2.0272e-07
0.00023319
-3.06556e-07
0.000234476
0.00023449
-4.08421e-07
-1.03372e-07
0.000201114
-2.15317e-07
0.000233302
-3.25591e-07
0.000234586
0.000234598
-4.33771e-07
-1.10068e-07
0.000201224
-2.29269e-07
0.000233421
-3.46684e-07
0.000234703
0.000234713
-4.61858e-07
-1.17462e-07
0.000201342
-2.4468e-07
0.000233548
-3.69972e-07
0.000234829
0.000234836
-4.92863e-07
-1.25605e-07
0.000201467
-2.61645e-07
0.000233684
-3.956e-07
0.000234963
0.000234967
-5.26993e-07
-1.34555e-07
0.000201602
-2.80273e-07
0.00023383
-4.23746e-07
0.000235106
0.000235108
-5.64468e-07
-1.44361e-07
0.000201746
-3.00689e-07
0.000233986
-4.54593e-07
0.00023526
0.000235259
-6.05535e-07
-1.55092e-07
0.000201901
-3.23033e-07
0.000234154
-4.88341e-07
0.000235425
0.000235421
-6.50468e-07
-1.66827e-07
0.000202068
-3.47442e-07
0.000234335
-5.25219e-07
0.000235603
0.000235596
-6.99558e-07
-1.79634e-07
0.000202248
-3.74089e-07
0.000234529
-5.65464e-07
0.000235794
0.000235783
-7.53131e-07
-1.93611e-07
0.000202441
-4.03145e-07
0.000234739
-6.09349e-07
0.000236001
0.000235985
-8.11543e-07
-2.08839e-07
0.00020265
-4.34809e-07
0.000234965
-6.57167e-07
0.000236223
0.000236203
-8.75184e-07
-2.25427e-07
0.000202875
-4.69297e-07
0.000235209
-7.0924e-07
0.000236463
0.000236439
-9.44486e-07
-2.43487e-07
0.000203119
-5.06842e-07
0.000235472
-7.6592e-07
0.000236722
0.000236693
-1.01991e-06
-2.63147e-07
0.000203382
-5.47695e-07
0.000235757
-8.27596e-07
0.000237002
0.000236967
-1.10198e-06
-2.8454e-07
0.000203667
-5.9214e-07
0.000236064
-8.94686e-07
0.000237304
0.000237264
-1.19125e-06
-3.07818e-07
0.000203974
-6.40485e-07
0.000236397
-9.67662e-07
0.000237632
0.000237584
-1.28833e-06
-3.33146e-07
0.000204307
-6.93073e-07
0.000236757
-1.04702e-06
0.000237985
0.000237931
-1.3939e-06
-3.60698e-07
0.000204668
-7.50268e-07
0.000237146
-1.13332e-06
0.000238369
0.000238307
-1.50868e-06
-3.90676e-07
0.000205059
-8.12484e-07
0.000237568
-1.22718e-06
0.000238783
0.000238713
-1.6335e-06
-4.23292e-07
0.000205482
-8.80155e-07
0.000238025
-1.32926e-06
0.000239232
0.000239153
-1.76923e-06
-4.58794e-07
0.000205941
-9.53782e-07
0.00023852
-1.4403e-06
0.000239719
0.000239629
-1.91687e-06
-4.97441e-07
0.000206438
-1.0339e-06
0.000239057
-1.56111e-06
0.000240246
0.000240146
-2.07746e-06
-5.39523e-07
0.000206978
-1.12111e-06
0.000239638
-1.69258e-06
0.000240818
0.000240705
-2.25219e-06
-5.85358e-07
0.000207563
-1.21607e-06
0.000240269
-1.8357e-06
0.000241437
0.000241312
-2.44237e-06
-6.35302e-07
0.000208198
-1.31949e-06
0.000240953
-1.99154e-06
0.000242109
0.00024197
-2.64941e-06
-6.89747e-07
0.000208888
-1.43218e-06
0.000241695
-2.16131e-06
0.000242838
0.000242683
-2.8749e-06
-7.49124e-07
0.000209637
-1.55503e-06
0.000242501
-2.34633e-06
0.00024363
0.000243458
-3.12058e-06
-8.13919e-07
0.000210451
-1.68901e-06
0.000243376
-2.54805e-06
0.000244489
0.000244298
-3.3884e-06
-8.8467e-07
0.000211336
-1.83523e-06
0.000244327
-2.76812e-06
0.000245422
0.00024521
-3.68048e-06
-9.61979e-07
0.000212298
-1.99489e-06
0.00024536
-3.00835e-06
0.000246435
0.000246201
-3.99922e-06
-1.04651e-06
0.000213344
-2.16935e-06
0.000246483
-3.27074e-06
0.000247536
0.000247278
-4.34725e-06
-1.13902e-06
0.000214483
-2.36013e-06
0.000247704
-3.55756e-06
0.000248734
0.000248448
-4.72754e-06
-1.24033e-06
0.000215724
-2.56891e-06
0.000249032
-3.8713e-06
0.000250036
0.00024972
-5.14338e-06
-1.3514e-06
0.000217075
-2.79761e-06
0.000250479
-4.2148e-06
0.000251453
0.000251104
-5.59846e-06
-1.47328e-06
0.000218548
-3.04834e-06
0.000252054
-4.59121e-06
0.000252996
0.000252609
-6.09692e-06
-1.60716e-06
0.000220156
-3.32352e-06
0.00025377
-5.0041e-06
0.000254677
0.000254249
-6.64341e-06
-1.75442e-06
0.00022191
-3.62588e-06
0.000255642
-5.45749e-06
0.000256508
0.000256034
-7.2432e-06
-1.91659e-06
0.000223826
-3.9585e-06
0.000257683
-5.95594e-06
0.000258506
0.000257981
-7.90222e-06
-2.09544e-06
0.000225922
-4.3249e-06
0.000259913
-6.50463e-06
0.000260686
0.000260103
-8.62719e-06
-2.29301e-06
0.000228215
-4.7291e-06
0.000262349
-7.10944e-06
0.000263066
0.000262419
-9.42579e-06
-2.5116e-06
0.000230727
-5.17566e-06
0.000265013
-7.77711e-06
0.000265667
0.000264949
-1.03067e-05
-2.75385e-06
0.00023348
-5.66987e-06
0.000267929
-8.51535e-06
0.000268513
0.000267714
-1.12799e-05
-3.02287e-06
0.000236503
-6.21779e-06
0.000271124
-9.33304e-06
0.000271628
0.000270738
-1.2357e-05
-3.32223e-06
0.000239825
-6.82645e-06
0.000274628
-1.02404e-05
0.000275042
0.000274048
-1.3551e-05
-3.65608e-06
0.000243482
-7.50403e-06
0.000278476
-1.12494e-05
0.000278788
0.000277676
-1.48774e-05
-4.02933e-06
0.000247511
-8.26007e-06
0.000282707
-1.23739e-05
0.000282901
0.000281656
-1.63538e-05
-4.44771e-06
0.000251959
-9.10579e-06
0.000287365
-1.36301e-05
0.000287426
0.000286027
-1.80011e-05
-4.91803e-06
0.000256877
-1.00544e-05
0.000292501
-1.50371e-05
0.000292408
0.000290833
-1.98436e-05
-5.44836e-06
0.000262325
-1.11214e-05
0.000298174
-1.66174e-05
0.000297904
0.000296126
-2.19099e-05
-6.04836e-06
0.000268373
-1.23256e-05
0.000304452
-1.83978e-05
0.000303976
0.000301962
-2.4234e-05
-6.72964e-06
0.000275103
-1.36893e-05
0.000311411
-2.04103e-05
0.000310697
0.000308408
-2.68563e-05
-7.50625e-06
0.000282609
-1.52394e-05
0.000319144
-2.26935e-05
0.000318152
0.00031554
-2.98253e-05
-8.39531e-06
0.000291004
-1.70086e-05
0.000327758
-2.52939e-05
0.000326437
0.000323445
-3.31992e-05
-9.4178e-06
0.000300422
-1.9037e-05
0.000337377
-2.82684e-05
0.000335668
0.000332226
-3.7049e-05
-1.05997e-05
0.000311022
-2.13738e-05
0.000348151
-3.16867e-05
0.000345981
0.000342
-4.14609e-05
-1.19732e-05
0.000322995
-2.40803e-05
0.000360258
-3.56352e-05
0.000357536
0.000352906
-4.65414e-05
-1.35797e-05
0.000336575
-2.72335e-05
0.000373912
-4.02217e-05
0.000370524
0.000365107
-5.24223e-05
-1.54694e-05
0.000352044
-3.09307e-05
0.000389373
-4.55819e-05
0.000385175
0.000378793
-5.92686e-05
-1.7713e-05
0.000369757
-3.52972e-05
0.000406957
-5.18887e-05
0.000401767
0.000394193
-6.72885e-05
-2.03857e-05
0.000390143
-4.04933e-05
0.000427065
-5.93654e-05
0.000420639
0.000411574
-7.67465e-05
-2.36274e-05
0.00041377
-4.67333e-05
0.000450171
-6.82998e-05
0.000442205
0.00043126
-8.79852e-05
-2.7537e-05
0.000441307
-5.42959e-05
0.00047693
-7.90773e-05
0.000466987
0.000453627
-0.000101445
-3.24102e-05
0.000473717
-6.35643e-05
0.000508084
-9.22021e-05
0.000495625
0.000479139
-0.000117714
-3.84029e-05
0.00051212
-7.50621e-05
0.000544743
-0.000108374
0.000528937
0.000508326
-0.00013756
-4.60673e-05
0.000558187
-8.95107e-05
0.000588186
-0.000128534
0.00056796
0.000541833
-0.000162041
-5.58173e-05
0.000614005
-0.000107963
0.000640332
-0.000154027
0.000614024
0.000580373
-0.000192567
-6.8608e-05
0.000682613
-0.000131892
0.000703616
-0.000186736
0.000668868
0.000624769
-0.000231132
-8.56734e-05
0.000768286
-0.000163596
0.000781539
-0.000229415
0.000734688
0.000675821
-0.000280467
-0.000108518
0.000876804
-0.000206173
0.000879194
-0.000286195
0.000814709
0.000734229
-0.000344603
-0.000141124
0.00101793
-0.000265291
0.00100336
-0.000363053
0.000912471
0.000800175
-0.000428999
-0.000184761
0.00120269
-0.000347115
0.00116572
-0.000470602
0.00103596
0.000872822
-0.000543248
-0.000246003
0.00144869
-0.000463709
0.00138342
-0.00062134
0.00119359
0.000948971
-0.00069749
-0.00034903
0.00179772
-0.000638776
0.00167317
-0.000851858
0.00140667
0.00102683
-0.000929713
-0.000402736
0.00220046
-0.000807837
0.00207827
-0.00114769
0.00174652
0.00112387
-0.00124473
-0.000770717
-0.00140901
-0.00179055
-0.00195888
0.000144906
-0.00015652
0.000301285
-0.000202185
0.000461696
-0.000226539
0.000615921
-0.000216792
0.000768893
-0.000161859
0.000907232
-1.59517e-05
0.000963111
0.000242751
0.000927498
0.000461655
0.000838354
0.000570786
0.000724732
0.000578332
0.000617268
0.000509914
0.000534415
0.000417182
0.000471294
0.000343255
0.000420138
0.000287986
0.000376862
0.000241694
0.000340111
0.000200397
0.00030928
0.00016506
0.000283629
0.000136454
0.000262331
0.000113677
0.000244612
9.53303e-05
0.000229809
8.03008e-05
0.000217387
6.7812e-05
0.000206939
5.73056e-05
0.000198154
4.83685e-05
0.00019079
4.069e-05
0.000184658
3.40358e-05
0.000179601
2.82259e-05
0.000175493
2.3122e-05
0.000172225
1.86157e-05
0.000169707
1.46221e-05
0.000167858
1.10751e-05
0.000166607
7.92226e-06
0.000165896
5.12188e-06
0.000165671
2.63259e-06
0.000165873
4.16664e-07
0.000166448
-1.54752e-06
0.000167351
-3.27118e-06
0.00016854
-4.76781e-06
0.000169975
-6.05393e-06
0.000171617
-7.14791e-06
0.000173431
-8.06514e-06
0.000175384
-8.81953e-06
0.000177446
-9.42422e-06
0.00017959
-9.89186e-06
0.00018179
-1.02348e-05
0.000184024
-1.04652e-05
0.000186272
-1.05947e-05
0.000188516
-1.06346e-05
0.000190741
-1.05959e-05
0.000192934
-1.04889e-05
0.000195083
-1.03232e-05
0.000197179
-1.01078e-05
0.000199215
-9.85093e-06
0.000201184
-9.56034e-06
0.000203081
-9.24294e-06
0.000204903
-8.90503e-06
0.000206648
-8.55223e-06
0.000208315
-8.18951e-06
0.000209902
-7.82124e-06
0.000211411
-7.45119e-06
0.000212842
-7.08262e-06
0.000214196
-6.71829e-06
0.000215475
-6.3605e-06
0.000216682
-6.01112e-06
0.000217818
-5.67169e-06
0.000218887
-5.34339e-06
0.000219891
-5.02713e-06
0.000220833
-4.72355e-06
0.000221716
-4.43309e-06
0.000222543
-4.15598e-06
0.000223316
-3.89233e-06
0.000224038
-3.64207e-06
0.000224713
-3.40507e-06
0.000225342
-3.18106e-06
0.00022593
-2.96973e-06
0.000226477
-2.7707e-06
0.000226987
-2.58355e-06
0.000227462
-2.40784e-06
0.000227904
-2.24308e-06
0.000228316
-2.08878e-06
0.000228698
-1.94447e-06
0.000229054
-1.80964e-06
0.000229385
-1.68381e-06
0.000229693
-1.5665e-06
0.000229979
-1.45725e-06
0.000230246
-1.35559e-06
0.000230493
-1.26111e-06
0.000230723
-1.17338e-06
0.000230937
-1.092e-06
0.000231137
-1.0166e-06
0.000231322
-9.46807e-07
0.000231495
-8.82297e-07
0.000231656
-8.22745e-07
0.000231807
-7.67846e-07
0.000231947
-7.17328e-07
0.000232078
-6.70919e-07
0.000232201
-6.28384e-07
0.000232317
-5.89491e-07
0.000232425
-5.54037e-07
0.000232527
-5.21824e-07
0.000232624
-4.92693e-07
0.000232715
-4.66471e-07
0.000232802
-4.43022e-07
0.000232884
-4.2221e-07
0.000232963
-4.03917e-07
0.000233039
-3.88049e-07
0.000233112
-3.74512e-07
0.000233184
-3.63242e-07
0.000233253
-3.54169e-07
0.000233321
-3.47245e-07
0.000233388
-3.42445e-07
0.000233454
-3.39742e-07
0.000233521
-3.39114e-07
0.000233587
-3.40573e-07
0.000233654
-3.44131e-07
0.000233723
-3.49814e-07
0.000233793
-3.57656e-07
0.000233865
-3.67717e-07
0.000233939
-3.80056e-07
0.000234016
-3.9477e-07
0.000234097
-4.11937e-07
0.000234181
-4.31675e-07
0.00023427
-4.5412e-07
0.000234364
-4.79414e-07
0.000234463
-5.0771e-07
0.000234569
-5.39207e-07
0.000234681
-5.74106e-07
0.000234801
-6.12635e-07
0.000234929
-6.5504e-07
0.000235066
-7.01604e-07
0.000235213
-7.52621e-07
0.000235371
-8.08441e-07
0.000235541
-8.69421e-07
0.000235724
-9.35965e-07
0.000235921
-1.00852e-06
0.000236133
-1.08756e-06
0.000236362
-1.17363e-06
0.00023661
-1.26729e-06
0.000236877
-1.3692e-06
0.000237166
-1.48003e-06
0.000237478
-1.60055e-06
0.000237815
-1.73158e-06
0.000238181
-1.87404e-06
0.000238576
-2.02894e-06
0.000239004
-2.19736e-06
0.000239468
-2.3805e-06
0.00023997
-2.5797e-06
0.000240514
-2.7964e-06
0.000241104
-3.0322e-06
0.000241744
-3.28887e-06
0.000242437
-3.56834e-06
0.000243189
-3.87276e-06
0.000244005
-4.20451e-06
0.000244891
-4.56623e-06
0.000245853
-4.96082e-06
0.000246897
-5.39154e-06
0.000248032
-5.862e-06
0.000249264
-6.37623e-06
0.000250605
-6.93874e-06
0.000252062
-7.55458e-06
0.000253648
-8.22942e-06
0.000255375
-8.96965e-06
0.000257255
-9.78247e-06
0.000259304
-1.06761e-05
0.000261538
-1.16596e-05
0.000263975
-1.27438e-05
0.000266635
-1.39405e-05
0.000269542
-1.52635e-05
0.00027272
-1.67288e-05
0.000276197
-1.83546e-05
0.000280005
-2.0162e-05
0.00028418
-2.21758e-05
0.000288761
-2.44248e-05
0.000293794
-2.69428e-05
0.00029933
-2.97697e-05
0.000305426
-3.29527e-05
0.000312149
-3.65483e-05
0.000319574
-4.06238e-05
0.000327786
-4.52608e-05
0.000336883
-5.05579e-05
0.000346977
-5.66358e-05
0.000358197
-6.36424e-05
0.00037069
-7.17614e-05
0.000384623
-8.12214e-05
0.000400187
-9.23106e-05
0.000417594
-0.000105393
0.000437085
-0.000120936
0.000458906
-0.000139536
0.000483325
-0.000161979
0.000510562
-0.000189278
0.000540785
-0.000222791
0.000573947
-0.000264294
0.000609667
-0.000316187
0.000646726
-0.000381662
0.000682713
-0.000464987
0.000711383
-0.000571918
0.000723223
-0.000709329
0.000680889
-0.00088738
0.000542043
-0.00110589
-0.00141683
0.000103466
-0.000259986
0.000212849
-0.000311569
0.000327424
-0.000341114
0.000433058
-0.000322427
0.000514981
-0.000243782
0.00058577
-8.67396e-05
0.000644195
0.000184327
0.000653035
0.000452814
0.000625549
0.000598271
0.000574437
0.000629444
0.000509092
0.000575259
0.00045026
0.000476015
0.000401985
0.000391529
0.000361906
0.000328066
0.00032892
0.00027468
0.000301773
0.000227545
0.000279012
0.000187822
0.000259646
0.00015582
0.000243114
0.000130209
0.000228995
0.000109449
0.000216926
9.23695e-05
0.000206611
7.81268e-05
0.000197814
6.6103e-05
0.000190342
5.58402e-05
0.000184039
4.69929e-05
0.000178775
3.93001e-05
0.00017444
3.25615e-05
0.000170939
2.66227e-05
0.000168191
2.13634e-05
0.000166124
1.66896e-05
0.000164671
1.25276e-05
0.000163775
8.81847e-06
0.000163384
5.51332e-06
0.000163447
2.56946e-06
0.000163912
-4.8652e-08
0.000164729
-2.36493e-06
0.000165855
-4.39726e-06
0.000167251
-6.16355e-06
0.000168878
-7.68033e-06
0.000170697
-8.96722e-06
0.000172674
-1.00425e-05
0.000174778
-1.09227e-05
0.000176977
-1.16235e-05
0.000179245
-1.216e-05
0.000181557
-1.25473e-05
0.000183892
-1.28e-05
0.00018623
-1.29322e-05
0.000188553
-1.29577e-05
0.000190847
-1.28898e-05
0.000193098
-1.27408e-05
0.000195298
-1.25225e-05
0.000197436
-1.22457e-05
0.000199505
-1.19205e-05
0.000201501
-1.15561e-05
0.000203419
-1.11609e-05
0.000205256
-1.07424e-05
0.000207011
-1.03074e-05
0.000208684
-9.86171e-06
0.000210273
-9.41058e-06
0.00021178
-8.95848e-06
0.000213207
-8.50922e-06
0.000214555
-8.06602e-06
0.000215826
-7.63156e-06
0.000217023
-7.20802e-06
0.000218148
-6.79713e-06
0.000219205
-6.40027e-06
0.000220196
-6.01844e-06
0.000221125
-5.65233e-06
0.000221994
-5.30241e-06
0.000222807
-4.96892e-06
0.000223567
-4.6519e-06
0.000224276
-4.35125e-06
0.000224938
-4.06672e-06
0.000225555
-3.79798e-06
0.000226129
-3.54462e-06
0.000226665
-3.30615e-06
0.000227163
-3.08204e-06
0.000227627
-2.87173e-06
0.000228059
-2.67463e-06
0.00022846
-2.49013e-06
0.000228833
-2.31763e-06
0.00022918
-2.15654e-06
0.000229503
-2.00625e-06
0.000229802
-1.86619e-06
0.000230081
-1.73578e-06
0.00023034
-1.61448e-06
0.00023058
-1.50177e-06
0.000230804
-1.39713e-06
0.000231012
-1.30009e-06
0.000231206
-1.2102e-06
0.000231386
-1.12703e-06
0.000231554
-1.05015e-06
0.00023171
-9.79182e-07
0.000231856
-9.13783e-07
0.000231993
-8.536e-07
0.00023212
-7.98334e-07
0.000232239
-7.47678e-07
0.000232351
-7.01368e-07
0.000232456
-6.59154e-07
0.000232555
-6.20815e-07
0.000232649
-5.86133e-07
0.000232737
-5.54926e-07
0.000232821
-5.27008e-07
0.000232901
-5.02233e-07
0.000232978
-4.80467e-07
0.000233051
-4.61581e-07
0.000233122
-4.4548e-07
0.000233191
-4.32061e-07
0.000233258
-4.21265e-07
0.000233324
-4.13034e-07
0.000233389
-4.07316e-07
0.000233453
-4.04091e-07
0.000233517
-4.03346e-07
0.000233582
-4.05083e-07
0.000233647
-4.09312e-07
0.000233713
-4.16066e-07
0.000233781
-4.25391e-07
0.000233851
-4.37352e-07
0.000233923
-4.5203e-07
0.000233997
-4.69516e-07
0.000234075
-4.89933e-07
0.000234157
-5.13409e-07
0.000234243
-5.40089e-07
0.000234334
-5.70152e-07
0.00023443
-6.03797e-07
0.000234532
-6.41241e-07
0.000234641
-6.8273e-07
0.000234756
-7.28532e-07
0.00023488
-7.78942e-07
0.000235013
-8.34282e-07
0.000235155
-8.94931e-07
0.000235308
-9.61268e-07
0.000235472
-1.03373e-06
0.000235649
-1.11282e-06
0.00023584
-1.19902e-06
0.000236045
-1.29294e-06
0.000236267
-1.39519e-06
0.000236506
-1.50647e-06
0.000236764
-1.62751e-06
0.000237043
-1.75914e-06
0.000237345
-1.90227e-06
0.000237671
-2.05786e-06
0.000238024
-2.22701e-06
0.000238406
-2.41089e-06
0.00023882
-2.61079e-06
0.000239267
-2.82815e-06
0.000239752
-3.0645e-06
0.000240277
-3.32156e-06
0.000240846
-3.60123e-06
0.000241463
-3.90557e-06
0.000242132
-4.23687e-06
0.000242856
-4.59766e-06
0.000243643
-4.99071e-06
0.000244496
-5.41913e-06
0.000245421
-5.88634e-06
0.000246426
-6.39612e-06
0.000247516
-6.95271e-06
0.000248701
-7.56082e-06
0.000249988
-8.2257e-06
0.000251387
-8.95323e-06
0.000252907
-9.75e-06
0.000254561
-1.06234e-05
0.00025636
-1.15819e-05
0.000258319
-1.26348e-05
0.000260452
-1.37928e-05
0.000262776
-1.5068e-05
0.00026531
-1.64743e-05
0.000268074
-1.80274e-05
0.000271091
-1.97455e-05
0.000274386
-2.16493e-05
0.000277987
-2.37629e-05
0.000281925
-2.61142e-05
0.000286236
-2.87356e-05
0.000290958
-3.16649e-05
0.000296135
-3.49467e-05
0.000301815
-3.86333e-05
0.000308054
-4.27869e-05
0.000314912
-4.74814e-05
0.000322456
-5.28053e-05
0.000330763
-5.88649e-05
0.000339916
-6.57889e-05
0.000350008
-7.3734e-05
0.000361138
-8.28916e-05
0.000373414
-9.34974e-05
0.000386946
-0.000105843
0.000401845
-0.000120292
0.000418206
-0.000137296
0.000436101
-0.00015743
0.000455531
-0.00018141
0.000476405
-0.000210152
0.000498413
-0.000244799
0.000520932
-0.000286813
0.000542744
-0.000337999
0.000561668
-0.000400585
0.000573885
-0.000477204