/*--------------------------------*- C++ -*----------------------------------*\
  =========                 |
  \\      /  F ield         | OpenFOAM: The Open Source CFD Toolbox
   \\    /   O peration     | Website:  https://openfoam.org
    \\  /    A nd           | Version:  dev
     \\/     M anipulation  |
\*---------------------------------------------------------------------------*/
FoamFile
{
    version     2.0;
    format      ascii;
    class       volVectorField;
    location    "13";
    object      U;
}
// * * * * * * * * * * * * * * * * * * * * * * * * * * * * * * * * * * * * * //

dimensions      [0 1 -1 0 0 0 0];

internalField   nonuniform List<vector> 
8000
(
(0.0997216 1.70795e-06 0)
(0.100144 -0.000329047 0)
(0.10026 -0.000854577 0)
(0.0997622 -7.31069e-05 0)
(0.099829 3.64358e-05 0)
(0.100983 -0.000696288 0)
(0.101887 -0.0025597 0)
(0.099174 -0.00055057 0)
(0.100058 0.000218588 0)
(0.102108 -0.00032712 0)
(0.10431 -0.00336256 0)
(0.100138 -0.00079642 0)
(0.0999786 0.000585047 0)
(0.102968 0.0011297 0)
(0.106753 -0.0022617 0)
(0.102943 0.000303329 0)
(0.0989381 0.00116464 0)
(0.102902 0.00366757 0)
(0.108125 0.00152108 0)
(0.107478 0.00443291 0)
(0.0961647 0.00202082 0)
(0.101124 0.00691366 0)
(0.106904 0.00798808 0)
(0.110781 0.0124666 0)
(0.0910257 0.00317234 0)
(0.0967706 0.0100966 0)
(0.101902 0.0155027 0)
(0.108594 0.0228743 0)
(0.0835309 0.0044168 0)
(0.0895635 0.0122912 0)
(0.0933091 0.0209951 0)
(0.0995818 0.0317698 0)
(0.0744848 0.00538204 0)
(0.0803911 0.0131568 0)
(0.0825425 0.0230456 0)
(0.0866739 0.0355709 0)
(0.0650121 0.00579074 0)
(0.0707349 0.0128551 0)
(0.0716503 0.0223506 0)
(0.0732318 0.0339911 0)
(0.0563081 0.00567234 0)
(0.0621182 0.0118165 0)
(0.0624555 0.0203095 0)
(0.0619106 0.0296481 0)
(0.0483266 0.00532226 0)
(0.0545161 0.0105488 0)
(0.0549959 0.0179279 0)
(0.0534205 0.0251317 0)
(0.041081 0.0047994 0)
(0.0479697 0.00926104 0)
(0.0488973 0.0156007 0)
(0.0470962 0.0213889 0)
(0.034893 0.00385937 0)
(0.0423832 0.00774992 0)
(0.0436501 0.0131932 0)
(0.0419532 0.01818 0)
(0.0301742 0.00263812 0)
(0.0376124 0.00599967 0)
(0.0389748 0.0107061 0)
(0.037468 0.0151714 0)
(0.0268798 0.0016304 0)
(0.0335911 0.00444327 0)
(0.0348152 0.00848035 0)
(0.033515 0.0124252 0)
(0.0245382 0.00106133 0)
(0.0302521 0.00341238 0)
(0.0312145 0.00678572 0)
(0.0301142 0.010142 0)
(0.0226897 0.000816879 0)
(0.0275117 0.00283545 0)
(0.0282078 0.00558196 0)
(0.0272725 0.00836019 0)
(0.0210899 0.000708998 0)
(0.0252627 0.00247669 0)
(0.0257445 0.00469186 0)
(0.0249333 0.0069776 0)
(0.0196607 0.000628713 0)
(0.0233956 0.00218289 0)
(0.023721 0.00398295 0)
(0.0230072 0.00587547 0)
(0.0183923 0.000549576 0)
(0.0218278 0.00191006 0)
(0.0220417 0.00339263 0)
(0.0214121 0.00497102 0)
(0.0172819 0.000474461 0)
(0.0205021 0.00165748 0)
(0.0206372 0.0028923 0)
(0.0200844 0.00421344 0)
(0.0163191 0.000406818 0)
(0.0193776 0.00142838 0)
(0.0194585 0.00246417 0)
(0.0189756 0.00357041 0)
(0.0154903 0.000347095 0)
(0.0184231 0.00122296 0)
(0.0184686 0.00209476 0)
(0.0180478 0.00301964 0)
(0.0147819 0.000294573 0)
(0.0176146 0.00103978 0)
(0.0176384 0.00177363 0)
(0.0172719 0.00254438 0)
(0.0141808 0.000248318 0)
(0.0169328 0.000876937 0)
(0.0169448 0.00149265 0)
(0.0166248 0.00213163 0)
(0.0136754 0.000207437 0)
(0.0163619 0.000732357 0)
(0.0163688 0.00124545 0)
(0.0160885 0.00177107 0)
(0.0132552 0.000171146 0)
(0.0158885 0.000603961 0)
(0.0158948 0.00102697 0)
(0.0156483 0.00145445 0)
(0.0129108 0.000138802 0)
(0.0155015 0.000489843 0)
(0.01551 0.000833141 0)
(0.0152923 0.00117526 0)
(0.0126341 0.000109845 0)
(0.0151911 0.00038823 0)
(0.0152032 0.00066064 0)
(0.0150102 0.000928255 0)
(0.0124181 8.38942e-05 0)
(0.0149489 0.00029775 0)
(0.0149654 0.000506981 0)
(0.0147936 0.000709326 0)
(0.0122557 5.97037e-05 0)
(0.0147668 0.000216484 0)
(0.014788 0.000369769 0)
(0.0146349 0.000515097 0)
(0.012144 3.93157e-05 0)
(0.014639 0.000145799 0)
(0.0146642 0.000249029 0)
(0.0145278 0.000343652 0)
(0.0120733 2.15352e-05 0)
(0.0145571 8.38544e-05 0)
(0.0145877 0.000142856 0)
(0.0144668 0.000192261 0)
(0.0120399 5.40409e-06 0)
(0.0145164 2.79716e-05 0)
(0.0145536 4.72402e-05 0)
(0.0144473 5.67706e-05 0)
(0.0120408 -1.00594e-05 0)
(0.0145134 -2.31224e-05 0)
(0.0145572 -3.89314e-05 0)
(0.0144642 -6.41346e-05 0)
(0.0120736 -2.35907e-05 0)
(0.0145442 -6.78365e-05 0)
(0.0145937 -0.00011464 0)
(0.0145127 -0.00017025 0)
(0.0121326 -3.49631e-05 0)
(0.0146037 -0.000106073 0)
(0.0146588 -0.000179846 0)
(0.0145887 -0.000261969 0)
(0.0122142 -4.47764e-05 0)
(0.0146882 -0.000138992 0)
(0.0147487 -0.000235988 0)
(0.0146889 -0.000340886 0)
(0.0123156 -5.32026e-05 0)
(0.0147943 -0.000167166 0)
(0.01486 -0.000283947 0)
(0.0148095 -0.000408232 0)
(0.0124336 -6.0335e-05 0)
(0.0149185 -0.000190959 0)
(0.0149892 -0.000324376 0)
(0.0149475 -0.000464907 0)
(0.0125656 -6.62636e-05 0)
(0.015058 -0.000210694 0)
(0.0151335 -0.000357864 0)
(0.0150997 -0.000511749 0)
(0.0127091 -7.10778e-05 0)
(0.0152099 -0.000226696 0)
(0.0152899 -0.000384975 0)
(0.0152635 -0.000549571 0)
(0.0128618 -7.4866e-05 0)
(0.0153718 -0.000239282 0)
(0.015456 -0.000406265 0)
(0.0154363 -0.000579152 0)
(0.0130216 -7.77166e-05 0)
(0.0155414 -0.000248754 0)
(0.0156295 -0.000422251 0)
(0.0156159 -0.000601218 0)
(0.0131865 -7.97135e-05 0)
(0.0157165 -0.000255397 0)
(0.0158083 -0.000433415 0)
(0.0158002 -0.000616467 0)
(0.0133548 -8.09385e-05 0)
(0.0158953 -0.000259492 0)
(0.0159905 -0.000440239 0)
(0.0159873 -0.000625599 0)
(0.0135251 -8.14734e-05 0)
(0.0160761 -0.000261318 0)
(0.0161744 -0.000443205 0)
(0.0161756 -0.000629295 0)
(0.0136958 -8.13954e-05 0)
(0.0162573 -0.000261138 0)
(0.0163585 -0.000442765 0)
(0.0163635 -0.000628199 0)
(0.0138658 -8.07786e-05 0)
(0.0164378 -0.000259204 0)
(0.0165415 -0.000439352 0)
(0.0165498 -0.000622929 0)
(0.014034 -7.9695e-05 0)
(0.0166164 -0.000255754 0)
(0.0167223 -0.000433379 0)
(0.0167335 -0.000614064 0)
(0.0141995 -7.82136e-05 0)
(0.016792 -0.000251008 0)
(0.0169 -0.000425219 0)
(0.0169136 -0.000602137 0)
(0.0143615 -7.63972e-05 0)
(0.0169639 -0.000245172 0)
(0.0170736 -0.00041522 0)
(0.0170894 -0.000587644 0)
(0.0145194 -7.43022e-05 0)
(0.0171314 -0.000238437 0)
(0.0172427 -0.000403706 0)
(0.0172601 -0.000571041 0)
(0.0146727 -7.19813e-05 0)
(0.0172939 -0.000230976 0)
(0.0174065 -0.000390972 0)
(0.0174252 -0.000552748 0)
(0.0148209 -6.94836e-05 0)
(0.017451 -0.000222947 0)
(0.0175648 -0.000377286 0)
(0.0175845 -0.000533144 0)
(0.0149638 -6.68541e-05 0)
(0.0176023 -0.000214491 0)
(0.017717 -0.000362889 0)
(0.0177375 -0.000512567 0)
(0.015101 -6.41316e-05 0)
(0.0177477 -0.000205737 0)
(0.0178632 -0.000347996 0)
(0.0178841 -0.000491319 0)
(0.0152324 -6.13504e-05 0)
(0.0178868 -0.000196795 0)
(0.018003 -0.000332797 0)
(0.0180242 -0.000469668 0)
(0.0153579 -5.85401e-05 0)
(0.0180197 -0.000187763 0)
(0.0181364 -0.000317456 0)
(0.0181578 -0.000447845 0)
(0.0154776 -5.57277e-05 0)
(0.0181464 -0.000178726 0)
(0.0182635 -0.000302117 0)
(0.0182847 -0.000426049 0)
(0.0155914 -5.29352e-05 0)
(0.0182667 -0.000169758 0)
(0.0183841 -0.000286901 0)
(0.0184052 -0.000404452 0)
(0.0156993 -5.01822e-05 0)
(0.0183809 -0.000160919 0)
(0.0184985 -0.000271912 0)
(0.0185193 -0.000383196 0)
(0.0158016 -4.7485e-05 0)
(0.0184891 -0.00015226 0)
(0.0186068 -0.000257234 0)
(0.0186272 -0.000362401 0)
(0.0158982 -4.4856e-05 0)
(0.0185913 -0.000143823 0)
(0.0187091 -0.000242938 0)
(0.018729 -0.000342163 0)
(0.0159895 -4.23059e-05 0)
(0.0186877 -0.00013564 0)
(0.0188055 -0.000229078 0)
(0.0188249 -0.000322558 0)
(0.0160755 -3.98423e-05 0)
(0.0187786 -0.000127738 0)
(0.0188963 -0.000215698 0)
(0.0189151 -0.000303643 0)
(0.0161564 -3.74712e-05 0)
(0.0188641 -0.000120136 0)
(0.0189818 -0.00020283 0)
(0.0189999 -0.000285462 0)
(0.0162324 -3.51971e-05 0)
(0.0189444 -0.000112847 0)
(0.019062 -0.000190496 0)
(0.0190795 -0.000268046 0)
(0.0163039 -3.30229e-05 0)
(0.0190198 -0.00010588 0)
(0.0191373 -0.000178711 0)
(0.0191541 -0.000251411 0)
(0.0163708 -3.09504e-05 0)
(0.0190906 -9.9239e-05 0)
(0.0192078 -0.000167481 0)
(0.019224 -0.000235567 0)
(0.0164335 -2.89802e-05 0)
(0.0191568 -9.29248e-05 0)
(0.0192739 -0.000156808 0)
(0.0192894 -0.000220514 0)
(0.0164923 -2.71114e-05 0)
(0.0192188 -8.69355e-05 0)
(0.0193357 -0.000146686 0)
(0.0193506 -0.000206245 0)
(0.0165472 -2.53424e-05 0)
(0.0192768 -8.1266e-05 0)
(0.0193935 -0.000137108 0)
(0.0194077 -0.000192748 0)
(0.0165985 -2.3671e-05 0)
(0.0193309 -7.59108e-05 0)
(0.0194475 -0.000128063 0)
(0.0194611 -0.000180005 0)
(0.0166464 -2.20946e-05 0)
(0.0193815 -7.08616e-05 0)
(0.0194978 -0.000119535 0)
(0.0195108 -0.000167995 0)
(0.0166911 -2.06106e-05 0)
(0.0194287 -6.61085e-05 0)
(0.0195448 -0.000111508 0)
(0.0195572 -0.000156694 0)
(0.0167328 -1.92156e-05 0)
(0.0194727 -6.1641e-05 0)
(0.0195887 -0.000103965 0)
(0.0196005 -0.000146078 0)
(0.0167717 -1.79059e-05 0)
(0.0195137 -5.74478e-05 0)
(0.0196295 -9.6886e-05 0)
(0.0196408 -0.000136118 0)
(0.0168079 -1.66782e-05 0)
(0.019552 -5.35176e-05 0)
(0.0196675 -9.02522e-05 0)
(0.0196783 -0.000126786 0)
(0.0168416 -1.5529e-05 0)
(0.0195876 -4.98386e-05 0)
(0.0197029 -8.40432e-05 0)
(0.0197132 -0.000118053 0)
(0.016873 -1.44545e-05 0)
(0.0196207 -4.63985e-05 0)
(0.0197359 -7.82382e-05 0)
(0.0197457 -0.00010989 0)
(0.0169022 -1.34507e-05 0)
(0.0196516 -4.31853e-05 0)
(0.0197666 -7.28172e-05 0)
(0.0197759 -0.000102269 0)
(0.0169294 -1.25145e-05 0)
(0.0196803 -4.01877e-05 0)
(0.0197952 -6.77607e-05 0)
(0.0198041 -9.51612e-05 0)
(0.0169548 -1.16416e-05 0)
(0.019707 -3.73944e-05 0)
(0.0198217 -6.30492e-05 0)
(0.0198302 -8.85392e-05 0)
(0.0169783 -1.08291e-05 0)
(0.0197319 -3.47941e-05 0)
(0.0198464 -5.86638e-05 0)
(0.0198546 -8.2376e-05 0)
(0.0170002 -1.00731e-05 0)
(0.019755 -3.23756e-05 0)
(0.0198694 -5.45854e-05 0)
(0.0198772 -7.66454e-05 0)
(0.0170206 -9.37079e-06 0)
(0.0197765 -3.01286e-05 0)
(0.0198908 -5.07965e-05 0)
(0.0198983 -7.1323e-05 0)
(0.0170396 -8.71914e-06 0)
(0.0197966 -2.80436e-05 0)
(0.0199107 -4.72811e-05 0)
(0.0199178 -6.63847e-05 0)
(0.0170573 -8.11493e-06 0)
(0.0198152 -2.61106e-05 0)
(0.0199293 -4.40227e-05 0)
(0.0199361 -6.18078e-05 0)
(0.0170737 -7.55547e-06 0)
(0.0198326 -2.4321e-05 0)
(0.0199465 -4.10058e-05 0)
(0.0199531 -5.75706e-05 0)
(0.017089 -7.03796e-06 0)
(0.0198488 -2.26659e-05 0)
(0.0199626 -3.82158e-05 0)
(0.0199689 -5.36532e-05 0)
(0.0171033 -6.55966e-06 0)
(0.0198639 -2.11369e-05 0)
(0.0199776 -3.56396e-05 0)
(0.0199836 -5.00363e-05 0)
(0.0171166 -6.11838e-06 0)
(0.019878 -1.97272e-05 0)
(0.0199916 -3.32646e-05 0)
(0.0199974 -4.67015e-05 0)
(0.0171291 -5.71218e-06 0)
(0.0198911 -1.84296e-05 0)
(0.0200046 -3.1078e-05 0)
(0.0200102 -4.36319e-05 0)
(0.0171407 -5.33854e-06 0)
(0.0199034 -1.72373e-05 0)
(0.0200169 -2.90689e-05 0)
(0.0200222 -4.08117e-05 0)
(0.0171516 -4.99572e-06 0)
(0.019915 -1.61439e-05 0)
(0.0200283 -2.72271e-05 0)
(0.0200334 -3.82264e-05 0)
(0.0171618 -4.6821e-06 0)
(0.0199258 -1.51441e-05 0)
(0.020039 -2.55427e-05 0)
(0.020044 -3.58624e-05 0)
(0.0171713 -4.39586e-06 0)
(0.0199359 -1.42323e-05 0)
(0.0200491 -2.40072e-05 0)
(0.0200538 -3.3707e-05 0)
(0.0171803 -4.13552e-06 0)
(0.0199454 -1.34036e-05 0)
(0.0200585 -2.26118e-05 0)
(0.0200631 -3.17491e-05 0)
(0.0171888 -3.89961e-06 0)
(0.0199544 -1.26536e-05 0)
(0.0200675 -2.13489e-05 0)
(0.0200719 -2.99775e-05 0)
(0.0171968 -3.68647e-06 0)
(0.0199629 -1.19783e-05 0)
(0.0200759 -2.02126e-05 0)
(0.0200802 -2.83829e-05 0)
(0.0172044 -3.49551e-06 0)
(0.019971 -1.13741e-05 0)
(0.0200839 -1.91958e-05 0)
(0.0200881 -2.69567e-05 0)
(0.0172116 -3.3256e-06 0)
(0.0199787 -1.08377e-05 0)
(0.0200915 -1.82936e-05 0)
(0.0200955 -2.56908e-05 0)
(0.0172185 -3.176e-06 0)
(0.019986 -1.03662e-05 0)
(0.0200988 -1.75002e-05 0)
(0.0201027 -2.45784e-05 0)
(0.0172251 -3.04511e-06 0)
(0.0199931 -9.95669e-06 0)
(0.0201058 -1.68122e-05 0)
(0.0201095 -2.36133e-05 0)
(0.0172315 -2.93261e-06 0)
(0.0199999 -9.60699e-06 0)
(0.0201125 -1.62253e-05 0)
(0.0201161 -2.27903e-05 0)
(0.0172376 -2.83783e-06 0)
(0.0200064 -9.31561e-06 0)
(0.020119 -1.57363e-05 0)
(0.0201225 -2.21045e-05 0)
(0.0172436 -2.76077e-06 0)
(0.0200128 -9.08115e-06 0)
(0.0201253 -1.53429e-05 0)
(0.0201287 -2.15523e-05 0)
(0.0172494 -2.70086e-06 0)
(0.020019 -8.90165e-06 0)
(0.0201315 -1.50424e-05 0)
(0.0201348 -2.11314e-05 0)
(0.0172552 -2.65766e-06 0)
(0.0200252 -8.7766e-06 0)
(0.0201375 -1.48337e-05 0)
(0.0201407 -2.08393e-05 0)
(0.0172608 -2.63057e-06 0)
(0.0200313 -8.70526e-06 0)
(0.0201436 -1.47155e-05 0)
(0.0201466 -2.06744e-05 0)
(0.0172665 -2.61936e-06 0)
(0.0200373 -8.6873e-06 0)
(0.0201495 -1.46881e-05 0)
(0.0201525 -2.06365e-05 0)
(0.0172721 -2.62455e-06 0)
(0.0200434 -8.72311e-06 0)
(0.0201555 -1.47511e-05 0)
(0.0201584 -2.07254e-05 0)
(0.0172778 -2.64627e-06 0)
(0.0200495 -8.81279e-06 0)
(0.0201616 -1.4905e-05 0)
(0.0201643 -2.0942e-05 0)
(0.0172835 -2.68515e-06 0)
(0.0200557 -8.95706e-06 0)
(0.0201677 -1.51506e-05 0)
(0.0201703 -2.1288e-05 0)
(0.0172894 -2.74095e-06 0)
(0.020062 -9.15696e-06 0)
(0.0201739 -1.54903e-05 0)
(0.0201764 -2.1766e-05 0)
(0.0172954 -2.81325e-06 0)
(0.0200685 -9.41349e-06 0)
(0.0201803 -1.59262e-05 0)
(0.0201827 -2.23788e-05 0)
(0.0173016 -2.90286e-06 0)
(0.0200751 -9.72838e-06 0)
(0.0201869 -1.6461e-05 0)
(0.0201892 -2.31308e-05 0)
(0.017308 -3.01064e-06 0)
(0.0200821 -1.01045e-05 0)
(0.0201937 -1.70988e-05 0)
(0.0201959 -2.40261e-05 0)
(0.0173146 -3.13769e-06 0)
(0.0200893 -1.05439e-05 0)
(0.0202008 -1.78432e-05 0)
(0.0202028 -2.50715e-05 0)
(0.0173216 -3.28503e-06 0)
(0.0200968 -1.10496e-05 0)
(0.0202083 -1.86992e-05 0)
(0.0202101 -2.62736e-05 0)
(0.0173289 -3.4534e-06 0)
(0.0201047 -1.16248e-05 0)
(0.0202161 -1.96723e-05 0)
(0.0202178 -2.76403e-05 0)
(0.0173367 -3.64374e-06 0)
(0.0201131 -1.22728e-05 0)
(0.0202243 -2.07689e-05 0)
(0.0202259 -2.91806e-05 0)
(0.0173448 -3.85662e-06 0)
(0.0201219 -1.29979e-05 0)
(0.020233 -2.19963e-05 0)
(0.0202344 -3.09043e-05 0)
(0.0173535 -4.09414e-06 0)
(0.0201313 -1.38055e-05 0)
(0.0202422 -2.33628e-05 0)
(0.0202435 -3.28231e-05 0)
(0.0173627 -4.35793e-06 0)
(0.0201412 -1.47004e-05 0)
(0.0202521 -2.48769e-05 0)
(0.0202531 -3.4949e-05 0)
(0.0173725 -4.64962e-06 0)
(0.0201519 -1.56888e-05 0)
(0.0202625 -2.65486e-05 0)
(0.0202633 -3.72959e-05 0)
(0.0173829 -4.9714e-06 0)
(0.0201632 -1.67769e-05 0)
(0.0202737 -2.83884e-05 0)
(0.0202743 -3.98791e-05 0)
(0.0173941 -5.32533e-06 0)
(0.0201753 -1.79719e-05 0)
(0.0202856 -3.04089e-05 0)
(0.020286 -4.27159e-05 0)
(0.0174062 -5.71308e-06 0)
(0.0201884 -1.92813e-05 0)
(0.0202985 -3.26234e-05 0)
(0.0202986 -4.58247e-05 0)
(0.0174191 -6.13735e-06 0)
(0.0202023 -2.07144e-05 0)
(0.0203122 -3.50468e-05 0)
(0.0203121 -4.92261e-05 0)
(0.0174329 -6.6013e-06 0)
(0.0202174 -2.22806e-05 0)
(0.020327 -3.76948e-05 0)
(0.0203266 -5.29421e-05 0)
(0.0174479 -7.10797e-06 0)
(0.0202335 -2.39903e-05 0)
(0.0203429 -4.05849e-05 0)
(0.0203422 -5.69973e-05 0)
(0.017464 -7.66171e-06 0)
(0.0202509 -2.58553e-05 0)
(0.02036 -4.37362e-05 0)
(0.020359 -6.14191e-05 0)
(0.0174813 -8.26564e-06 0)
(0.0202697 -2.78874e-05 0)
(0.0203785 -4.71698e-05 0)
(0.0203771 -6.6237e-05 0)
(0.0175 -8.92385e-06 0)
(0.0202899 -3.01005e-05 0)
(0.0203984 -5.09092e-05 0)
(0.0203966 -7.14839e-05 0)
(0.0175202 -9.64049e-06 0)
(0.0203118 -3.25098e-05 0)
(0.0204199 -5.49798e-05 0)
(0.0204177 -7.71948e-05 0)
(0.017542 -1.04206e-05 0)
(0.0203354 -3.51317e-05 0)
(0.0204432 -5.94094e-05 0)
(0.0204405 -8.3409e-05 0)
(0.0175656 -1.12696e-05 0)
(0.0203609 -3.79844e-05 0)
(0.0204683 -6.42283e-05 0)
(0.0204651 -9.01681e-05 0)
(0.0175912 -1.21939e-05 0)
(0.0203885 -4.10879e-05 0)
(0.0204954 -6.94702e-05 0)
(0.0204917 -9.75194e-05 0)
(0.0176188 -1.32001e-05 0)
(0.0204184 -4.44641e-05 0)
(0.0205247 -7.51709e-05 0)
(0.0205204 -0.000105513 0)
(0.0176487 -1.42951e-05 0)
(0.0204506 -4.81363e-05 0)
(0.0205565 -8.13712e-05 0)
(0.0205516 -0.000114206 0)
(0.0176811 -1.5487e-05 0)
(0.0204856 -5.21311e-05 0)
(0.0205909 -8.81147e-05 0)
(0.0205853 -0.00012366 0)
(0.0177161 -1.67842e-05 0)
(0.0205235 -5.64766e-05 0)
(0.0206281 -9.54498e-05 0)
(0.0206217 -0.000133941 0)
(0.0177541 -1.81969e-05 0)
(0.0205645 -6.12054e-05 0)
(0.0206684 -0.00010343 0)
(0.0206612 -0.000145124 0)
(0.0177953 -1.97354e-05 0)
(0.0206089 -6.63518e-05 0)
(0.0207121 -0.000112112 0)
(0.020704 -0.000157289 0)
(0.01784 -2.14117e-05 0)
(0.0206571 -7.19545e-05 0)
(0.0207594 -0.000121562 0)
(0.0207504 -0.000170527 0)
(0.0178885 -2.32384e-05 0)
(0.0207093 -7.80554e-05 0)
(0.0208108 -0.00013185 0)
(0.0208006 -0.000184937 0)
(0.0179411 -2.52301e-05 0)
(0.020766 -8.47016e-05 0)
(0.0208664 -0.000143054 0)
(0.0208551 -0.000200626 0)
(0.0179982 -2.74027e-05 0)
(0.0208275 -9.19446e-05 0)
(0.0209268 -0.000155261 0)
(0.0209142 -0.000217716 0)
(0.0180602 -2.97736e-05 0)
(0.0208942 -9.98414e-05 0)
(0.0209923 -0.000168566 0)
(0.0209783 -0.000236338 0)
(0.0181275 -3.23622e-05 0)
(0.0209666 -0.000108456 0)
(0.0210634 -0.000183075 0)
(0.0210479 -0.00025664 0)
(0.0182007 -3.51903e-05 0)
(0.0210453 -0.000117859 0)
(0.0211406 -0.000198907 0)
(0.0211234 -0.000278786 0)
(0.0182803 -3.82824e-05 0)
(0.0211307 -0.00012813 0)
(0.0212245 -0.000216192 0)
(0.0212054 -0.000302956 0)
(0.0183668 -4.16662e-05 0)
(0.0212236 -0.000139356 0)
(0.0213156 -0.000235075 0)
(0.0212945 -0.000329353 0)
(0.018461 -4.53725e-05 0)
(0.0213246 -0.000151635 0)
(0.0214146 -0.000255721 0)
(0.0213913 -0.000358201 0)
(0.0185635 -4.94358e-05 0)
(0.0214344 -0.000165078 0)
(0.0215223 -0.00027831 0)
(0.0214965 -0.000389753 0)
(0.0186751 -5.38948e-05 0)
(0.021554 -0.000179808 0)
(0.0216395 -0.000303047 0)
(0.0216109 -0.00042429 0)
(0.0187968 -5.87931e-05 0)
(0.0216842 -0.000195962 0)
(0.021767 -0.000330161 0)
(0.0217354 -0.000462129 0)
(0.0189295 -6.41797e-05 0)
(0.0218259 -0.000213699 0)
(0.0219059 -0.000359912 0)
(0.0218709 -0.000503626 0)
(0.0190743 -7.0111e-05 0)
(0.0219805 -0.000233195 0)
(0.0220572 -0.000392591 0)
(0.0220184 -0.000549182 0)
(0.0192325 -7.66514e-05 0)
(0.0221491 -0.000254653 0)
(0.0222222 -0.00042853 0)
(0.0221792 -0.000599254 0)
(0.0194053 -8.38746e-05 0)
(0.0223331 -0.000278302 0)
(0.0224021 -0.000468106 0)
(0.0223545 -0.000654356 0)
(0.0195943 -9.18654e-05 0)
(0.0225341 -0.000304406 0)
(0.0225985 -0.000511747 0)
(0.0225457 -0.000715077 0)
(0.0198013 -0.00010072 0)
(0.0227537 -0.000333263 0)
(0.0228131 -0.000559944 0)
(0.0227545 -0.000782086 0)
(0.0200281 -0.000110551 0)
(0.0229941 -0.000365221 0)
(0.0230478 -0.00061326 0)
(0.0229825 -0.00085615 0)
(0.0202769 -0.000121488 0)
(0.0232573 -0.000400677 0)
(0.0233045 -0.000672341 0)
(0.0232319 -0.000938154 0)
(0.0205501 -0.000133682 0)
(0.0235458 -0.000440095 0)
(0.0235857 -0.000737939 0)
(0.0235047 -0.00102912 0)
(0.0208506 -0.000147311 0)
(0.0238625 -0.000484009 0)
(0.0238941 -0.000810927 0)
(0.0238036 -0.00113022 0)
(0.0211816 -0.000162586 0)
(0.0242104 -0.000533049 0)
(0.0242326 -0.000892323 0)
(0.0241313 -0.00124283 0)
(0.0215466 -0.000179753 0)
(0.0245931 -0.000587953 0)
(0.0246046 -0.000983319 0)
(0.0244909 -0.00136856 0)
(0.0219499 -0.000199104 0)
(0.0250149 -0.000649593 0)
(0.025014 -0.00108532 0)
(0.0248862 -0.0015093 0)
(0.0223962 -0.000220991 0)
(0.0254803 -0.000719003 0)
(0.0254652 -0.00119998 0)
(0.0253211 -0.00166727 0)
(0.0228911 -0.000245833 0)
(0.0259948 -0.000797418 0)
(0.0259633 -0.00132929 0)
(0.0258003 -0.00184512 0)
(0.0234411 -0.000274138 0)
(0.0265647 -0.000886321 0)
(0.0265141 -0.00147561 0)
(0.0263292 -0.00204599 0)
(0.0240539 -0.000306524 0)
(0.0271971 -0.0009875 0)
(0.0271243 -0.00164179 0)
(0.0269138 -0.00227367 0)
(0.0247382 -0.000343746 0)
(0.0279007 -0.00110313 0)
(0.0278019 -0.0018313 0)
(0.0275612 -0.00253274 0)
(0.0255047 -0.000386735 0)
(0.0286854 -0.00123589 0)
(0.0285559 -0.00204836 0)
(0.0282796 -0.00282875 0)
(0.026366 -0.000436649 0)
(0.029563 -0.00138905 0)
(0.0293971 -0.00229818 0)
(0.0290784 -0.00316853 0)
(0.0273371 -0.000494927 0)
(0.0305476 -0.00156674 0)
(0.0303382 -0.00258721 0)
(0.0299687 -0.0035605 0)
(0.0284363 -0.000563411 0)
(0.0316559 -0.00177417 0)
(0.0313943 -0.0029235 0)
(0.0309633 -0.00401514 0)
(0.0296856 -0.000644361 0)
(0.0329083 -0.00201781 0)
(0.0325835 -0.00331727 0)
(0.0320776 -0.00454563 0)
(0.0311125 -0.000740991 0)
(0.0343296 -0.00230627 0)
(0.0339277 -0.00378161 0)
(0.0333296 -0.00516866 0)
(0.0327505 -0.000856663 0)
(0.0359504 -0.00264992 0)
(0.0354532 -0.00433339 0)
(0.0347406 -0.00590563 0)
(0.0346425 -0.000997831 0)
(0.0378084 -0.00306434 0)
(0.0371926 -0.0049947 0)
(0.0363361 -0.0067843 0)
(0.0368415 -0.00116891 0)
(0.0399519 -0.00356635 0)
(0.0391861 -0.00579487 0)
(0.0381464 -0.00784096 0)
(0.0394175 -0.00138336 0)
(0.0424412 -0.00418562 0)
(0.0414835 -0.00677318 0)
(0.040208 -0.00912394 0)
(0.0424597 -0.00164876 0)
(0.0453552 -0.00495307 0)
(0.044148 -0.00798365 0)
(0.042564 -0.010698 0)
(0.0460896 -0.0019892 0)
(0.0487971 -0.00592413 0)
(0.0472594 -0.00950083 0)
(0.0452659 -0.0126517 0)
(0.050462 -0.00242569 0)
(0.0529042 -0.00716614 0)
(0.0509211 -0.0114307 0)
(0.0483741 -0.0151076 0)
(0.0558202 -0.00299923 0)
(0.0578637 -0.00878554 0)
(0.0552635 -0.0139255 0)
(0.0519571 -0.0182383 0)
(0.0623998 -0.00377017 0)
(0.0639314 -0.0109463 0)
(0.0604726 -0.0172094 0)
(0.0560938 -0.0222881 0)
(0.0708946 -0.00480685 0)
(0.0714846 -0.0138472 0)
(0.0667422 -0.0216169 0)
(0.0608485 -0.0276246 0)
(0.0810685 -0.00627202 0)
(0.0809796 -0.0179566 0)
(0.0745408 -0.0276645 0)
(0.0663412 -0.0347534 0)
(0.0965898 -0.00838897 0)
(0.0935044 -0.0235648 0)
(0.0838613 -0.0361339 0)
(0.0723704 -0.0446058 0)
(0.110471 -0.0108647 0)
(0.108611 -0.0315521 0)
(0.0969687 -0.0482666 0)
(0.0799412 -0.0581583 0)
(0.146435 -0.0164938 0)
(0.134359 -0.0447288 0)
(0.111309 -0.0663681 0)
(0.0849685 -0.0788068 0)
(0.157775 -0.0173803 0)
(0.151766 -0.0530411 0)
(0.135182 -0.0883389 0)
(0.104613 -0.106698 0)
(0.246595 -0.0341894 0)
(0.225713 -0.0985147 0)
(0.176613 -0.14894 0)
(0.101836 -0.168693 0)
(0.00804447 -0.00584891 0)
(0.0184299 -0.0105632 0)
(0.0322846 -0.0128791 0)
(0.0457097 -0.0125198 0)
(0.0578869 -0.00778929 0)
(0.0723434 0.00580597 0)
(0.0840525 0.0254291 0)
(0.0844519 0.0390444 0)
(0.0777005 0.0461498 0)
(0.0674622 0.0458727 0)
(0.0571253 0.0398487 0)
(0.0489234 0.0327002 0)
(0.0429836 0.0270808 0)
(0.03821 0.0227935 0)
(0.034167 0.0191449 0)
(0.030745 0.0158655 0)
(0.0278682 0.0130547 0)
(0.0254625 0.0107836 0)
(0.0234618 0.00898145 0)
(0.0217994 0.00753239 0)
(0.0204126 0.00634475 0)
(0.0192502 0.00535714 0)
(0.0182724 0.00452647 0)
(0.0174493 0.00382029 0)
(0.0167578 0.00321406 0)
(0.0161796 0.0026892 0)
(0.0157002 0.00223141 0)
(0.0153075 0.0018297 0)
(0.0149916 0.00147543 0)
(0.0147439 0.0011618 0)
(0.0145572 0.000883517 0)
(0.0144249 0.000636389 0)
(0.0143414 0.000417285 0)
(0.014302 0.000222697 0)
(0.014302 4.9388e-05 0)
(0.0143365 -0.000104435 0)
(0.0144011 -0.000239568 0)
(0.0144921 -0.000356807 0)
(0.0146059 -0.000457489 0)
(0.0147393 -0.000543257 0)
(0.0148889 -0.000615288 0)
(0.015052 -0.000674654 0)
(0.0152257 -0.000722391 0)
(0.0154075 -0.000759481 0)
(0.0155953 -0.000786868 0)
(0.0157869 -0.000805482 0)
(0.0159806 -0.00081624 0)
(0.0161746 -0.000820017 0)
(0.0163677 -0.000817655 0)
(0.0165585 -0.000809956 0)
(0.016746 -0.000797665 0)
(0.0169293 -0.000781475 0)
(0.0171077 -0.00076203 0)
(0.0172805 -0.000739922 0)
(0.0174474 -0.000715693 0)
(0.0176079 -0.000689831 0)
(0.0177619 -0.000662773 0)
(0.0179091 -0.000634909 0)
(0.0180495 -0.000606579 0)
(0.0181831 -0.000578078 0)
(0.0183099 -0.000549661 0)
(0.0184301 -0.000521544 0)
(0.0185437 -0.000493909 0)
(0.018651 -0.000466903 0)
(0.018752 -0.000440648 0)
(0.0188472 -0.000415238 0)
(0.0189366 -0.000390747 0)
(0.0190205 -0.000367227 0)
(0.0190992 -0.000344713 0)
(0.0191729 -0.000323225 0)
(0.0192419 -0.000302771 0)
(0.0193064 -0.00028335 0)
(0.0193667 -0.000264951 0)
(0.0194229 -0.000247555 0)
(0.0194754 -0.000231138 0)
(0.0195243 -0.000215673 0)
(0.0195699 -0.000201128 0)
(0.0196124 -0.000187468 0)
(0.019652 -0.000174657 0)
(0.0196888 -0.000162658 0)
(0.019723 -0.000151433 0)
(0.0197549 -0.000140943 0)
(0.0197845 -0.000131153 0)
(0.019812 -0.000122024 0)
(0.0198376 -0.00011352 0)
(0.0198615 -0.000105607 0)
(0.0198836 -9.82523e-05 0)
(0.0199042 -9.14221e-05 0)
(0.0199234 -8.50855e-05 0)
(0.0199412 -7.92134e-05 0)
(0.0199578 -7.37782e-05 0)
(0.0199732 -6.87541e-05 0)
(0.0199876 -6.41156e-05 0)
(0.0200011 -5.98391e-05 0)
(0.0200136 -5.59036e-05 0)
(0.0200253 -5.22883e-05 0)
(0.0200363 -4.89745e-05 0)
(0.0200466 -4.59446e-05 0)
(0.0200562 -4.31819e-05 0)
(0.0200653 -4.06721e-05 0)
(0.0200739 -3.84022e-05 0)
(0.0200819 -3.63588e-05 0)
(0.0200896 -3.45316e-05 0)
(0.0200969 -3.29097e-05 0)
(0.0201039 -3.14846e-05 0)
(0.0201106 -3.0248e-05 0)
(0.020117 -2.91934e-05 0)
(0.0201232 -2.83151e-05 0)
(0.0201293 -2.76081e-05 0)
(0.0201352 -2.70692e-05 0)
(0.020141 -2.66952e-05 0)
(0.0201467 -2.64847e-05 0)
(0.0201525 -2.64362e-05 0)
(0.0201582 -2.65504e-05 0)
(0.020164 -2.68284e-05 0)
(0.0201698 -2.7272e-05 0)
(0.0201758 -2.7884e-05 0)
(0.0201819 -2.86689e-05 0)
(0.0201882 -2.96316e-05 0)
(0.0201947 -3.07788e-05 0)
(0.0202015 -3.21181e-05 0)
(0.0202087 -3.3658e-05 0)
(0.0202161 -3.54087e-05 0)
(0.020224 -3.73814e-05 0)
(0.0202323 -3.95887e-05 0)
(0.0202411 -4.20456e-05 0)
(0.0202505 -4.47679e-05 0)
(0.0202605 -4.77732e-05 0)
(0.0202712 -5.1081e-05 0)
(0.0202826 -5.47132e-05 0)
(0.0202949 -5.8693e-05 0)
(0.020308 -6.30475e-05 0)
(0.0203221 -6.78047e-05 0)
(0.0203373 -7.29962e-05 0)
(0.0203537 -7.86566e-05 0)
(0.0203713 -8.48236e-05 0)
(0.0203904 -9.15389e-05 0)
(0.0204109 -9.88473e-05 0)
(0.0204331 -0.000106799 0)
(0.020457 -0.000115447 0)
(0.0204829 -0.000124852 0)
(0.0205109 -0.000135079 0)
(0.0205412 -0.000146198 0)
(0.020574 -0.000158289 0)
(0.0206095 -0.000171436 0)
(0.0206479 -0.000185734 0)
(0.0206896 -0.000201286 0)
(0.0207346 -0.000218207 0)
(0.0207835 -0.000236621 0)
(0.0208365 -0.000256666 0)
(0.0208939 -0.000278496 0)
(0.0209562 -0.000302278 0)
(0.0210238 -0.000328198 0)
(0.0210971 -0.000356464 0)
(0.0211767 -0.000387305 0)
(0.0212631 -0.000420976 0)
(0.021357 -0.000457761 0)
(0.021459 -0.000497978 0)
(0.0215699 -0.000541981 0)
(0.0216904 -0.000590169 0)
(0.0218216 -0.000642988 0)
(0.0219643 -0.000700944 0)
(0.0221197 -0.000764605 0)
(0.0222889 -0.000834617 0)
(0.0224734 -0.000911713 0)
(0.0226747 -0.000996728 0)
(0.0228943 -0.00109062 0)
(0.0231341 -0.00119447 0)
(0.0233962 -0.00130956 0)
(0.0236829 -0.00143733 0)
(0.0239967 -0.00157949 0)
(0.0243405 -0.001738 0)
(0.0247177 -0.00191517 0)
(0.0251318 -0.00211372 0)
(0.025587 -0.00233686 0)
(0.0260879 -0.00258841 0)
(0.02664 -0.00287293 0)
(0.0272493 -0.0031959 0)
(0.0279227 -0.00356395 0)
(0.0286681 -0.00398517 0)
(0.0294946 -0.00446946 0)
(0.0304125 -0.00502904 0)
(0.0314338 -0.00567917 0)
(0.032572 -0.00643896 0)
(0.0338427 -0.00733264 0)
(0.0352634 -0.0083912 0)
(0.0368538 -0.00965451 0)
(0.0386354 -0.0111747 0)
(0.0406312 -0.0130203 0)
(0.0428634 -0.0152823 0)
(0.0453512 -0.0180831 0)
(0.0481037 -0.0215892 0)
(0.051109 -0.0260274 0)
(0.0543137 -0.0317156 0)
(0.0575742 -0.0390864 0)
(0.0606042 -0.0488008 0)
(0.0627415 -0.0616292 0)
(0.0623913 -0.0795256 0)
(0.059861 -0.103354 0)
(0.0177986 -0.144487 0)
(0.00546882 -0.0215168 0)
(0.0130569 -0.0254576 0)
(0.0228587 -0.0274227 0)
(0.0319218 -0.0259864 0)
(0.0393377 -0.0207191 0)
(0.0461112 -0.00857247 0)
(0.054827 0.0163463 0)
(0.0588265 0.0396105 0)
(0.0566342 0.0510945 0)
(0.0524137 0.0530866 0)
(0.0463995 0.0477851 0)
(0.040751 0.0391492 0)
(0.036427 0.032079 0)
(0.0327194 0.0268579 0)
(0.0295773 0.0225379 0)
(0.0270417 0.0186941 0)
(0.0249473 0.0154074 0)
(0.0231578 0.0127471 0)
(0.0216256 0.0106243 0)
(0.0203169 0.00891134 0)
(0.0191977 0.00750778 0)
(0.0182399 0.00634162 0)
(0.0174215 0.00536022 0)
(0.0167243 0.00452497 0)
(0.0161338 0.0038068 0)
(0.0156378 0.00318383 0)
(0.0152262 0.00263933 0)
(0.0148903 0.00216043 0)
(0.0146226 0.00173711 0)
(0.0144165 0.00136153 0)
(0.0142661 0.00102759 0)
(0.014166 0.000730434 0)
(0.0141115 0.000466052 0)
(0.0140983 0.000230816 0)
(0.014122 2.15463e-05 0)
(0.0141783 -0.000163717 0)
(0.0142628 -0.000326222 0)
(0.0143723 -0.00046753 0)
(0.0145034 -0.00058896 0)
(0.0146526 -0.000692047 0)
(0.0148169 -0.000778365 0)
(0.0149935 -0.000849226 0)
(0.0151795 -0.000905864 0)
(0.0153727 -0.00094948 0)
(0.0155706 -0.000981256 0)
(0.0157715 -0.00100235 0)
(0.0159733 -0.00101387 0)
(0.0161746 -0.00101691 0)
(0.016374 -0.0010125 0)
(0.0165703 -0.00100163 0)
(0.0167625 -0.000985221 0)
(0.0169498 -0.000964123 0)
(0.0171314 -0.000939133 0)
(0.0173069 -0.00091098 0)
(0.0174758 -0.000880327 0)
(0.0176379 -0.000847771 0)
(0.0177929 -0.000813844 0)
(0.0179408 -0.00077902 0)
(0.0180815 -0.00074371 0)
(0.0182152 -0.000708274 0)
(0.0183417 -0.000673016 0)
(0.0184614 -0.000638196 0)
(0.0185744 -0.000604029 0)
(0.0186809 -0.000570692 0)
(0.018781 -0.000538324 0)
(0.0188752 -0.000507038 0)
(0.0189635 -0.000476915 0)
(0.0190463 -0.000448016 0)
(0.0191239 -0.000420378 0)
(0.0191964 -0.000394024 0)
(0.0192643 -0.000368961 0)
(0.0193276 -0.000345181 0)
(0.0193867 -0.000322669 0)
(0.0194419 -0.000301397 0)
(0.0194932 -0.000281335 0)
(0.0195411 -0.000262447 0)
(0.0195857 -0.000244691 0)
(0.0196272 -0.000228023 0)
(0.0196658 -0.000212398 0)
(0.0197017 -0.000197768 0)
(0.0197351 -0.000184088 0)
(0.0197662 -0.000171309 0)
(0.019795 -0.000159385 0)
(0.0198219 -0.00014827 0)
(0.0198468 -0.000137919 0)
(0.01987 -0.000128291 0)
(0.0198915 -0.000119343 0)
(0.0199115 -0.000111034 0)
(0.0199302 -0.000103329 0)
(0.0199475 -9.61896e-05 0)
(0.0199636 -8.95828e-05 0)
(0.0199786 -8.3476e-05 0)
(0.0199926 -7.78389e-05 0)
(0.0200056 -7.2643e-05 0)
(0.0200178 -6.78616e-05 0)
(0.0200292 -6.34699e-05 0)
(0.0200398 -5.94448e-05 0)
(0.0200498 -5.57647e-05 0)
(0.0200591 -5.24101e-05 0)
(0.0200679 -4.93628e-05 0)
(0.0200762 -4.66066e-05 0)
(0.020084 -4.41261e-05 0)
(0.0200915 -4.19076e-05 0)
(0.0200985 -3.99387e-05 0)
(0.0201053 -3.82086e-05 0)
(0.0201118 -3.67077e-05 0)
(0.020118 -3.54277e-05 0)
(0.020124 -3.43616e-05 0)
(0.0201299 -3.35038e-05 0)
(0.0201356 -3.28496e-05 0)
(0.0201412 -3.23958e-05 0)
(0.0201468 -3.21402e-05 0)
(0.0201524 -3.20815e-05 0)
(0.0201579 -3.22201e-05 0)
(0.0201635 -3.25572e-05 0)
(0.0201692 -3.30951e-05 0)