/*--------------------------------*- C++ -*----------------------------------*\
  =========                 |
  \\      /  F ield         | OpenFOAM: The Open Source CFD Toolbox
   \\    /   O peration     | Website:  https://openfoam.org
    \\  /    A nd           | Version:  dev
     \\/     M anipulation  |
\*---------------------------------------------------------------------------*/
FoamFile
{
    version     2.0;
    format      ascii;
    class       surfaceScalarField;
    location    "1";
    object      phi;
}
// * * * * * * * * * * * * * * * * * * * * * * * * * * * * * * * * * * * * * //

dimensions      [1 0 -1 0 0 0 0];

internalField   nonuniform List<scalar> 
15760
(
5.41402e-05
0.00110448
0.000122195
0.00109056
0.000248093
0.00103271
0.000891793
0.000514905
0.000133026
0.000971458
0.000282069
0.000941519
0.000454986
0.000859798
0.00070797
0.000638812
0.000154221
0.000817235
0.000304397
0.000791342
0.000452142
0.000712053
0.000586139
0.000573973
0.000128395
0.00068884
0.000249552
0.000670185
0.000357872
0.000603733
0.000506637
0.000437373
9.84778e-05
0.000590361
0.00019296
0.000575702
0.000272028
0.000524665
0.000454941
0.000323724
7.584e-05
0.000514521
0.000147347
0.000504196
0.000204819
0.000467193
0.000417477
0.000242282
5.73918e-05
0.000457129
0.000111427
0.000450161
0.000155248
0.000423372
0.000387208
0.000185518
4.40772e-05
0.000413052
8.56529e-05
0.000408585
0.000120059
0.000388965
0.000362284
0.000144984
3.43631e-05
0.000378689
6.68443e-05
0.000376104
9.4247e-05
0.000361562
0.000341601
0.00011493
2.70803e-05
0.000351609
5.2769e-05
0.000350415
7.48415e-05
0.00033949
0.000324328
9.21138e-05
2.15602e-05
0.000330048
4.21037e-05
0.000329871
6.00499e-05
0.000321544
0.00030986
7.45179e-05
1.73312e-05
0.000312717
3.39214e-05
0.000313281
4.86212e-05
0.000306844
0.000297721
6.07604e-05
1.4052e-05
0.000298665
2.75621e-05
0.000299771
3.96757e-05
0.00029473
0.000287522
4.98749e-05
1.14795e-05
0.000287186
2.25598e-05
0.00028869
3.2593e-05
0.000284697
0.000278941
4.11739e-05
9.43934e-06
0.000277746
1.85819e-05
0.000279548
2.69277e-05
0.000276351
0.000271712
3.41567e-05
7.80523e-06
0.000269941
1.53875e-05
0.000271965
2.23552e-05
0.000269383
0.000265614
2.84533e-05
6.48476e-06
0.000263456
1.28002e-05
0.00026565
1.86355e-05
0.000263548
0.000260463
2.3786e-05
5.40943e-06
0.000258047
1.06887e-05
0.000260371
1.55887e-05
0.000258648
0.000256108
1.99439e-05
4.52771e-06
0.000253519
8.95445e-06
0.000255944
1.30785e-05
0.000254524
0.000252422
1.67649e-05
3.80071e-06
0.000249718
7.52202e-06
0.000252222
1.09994e-05
0.000251046
0.000249298
1.41226e-05
3.1982e-06
0.00024652
6.33301e-06
0.000249088
9.26989e-06
0.000248109
0.00024665
1.19179e-05
2.69613e-06
0.000243824
5.34155e-06
0.000246442
7.82531e-06
0.000245625
0.000244404
1.00721e-05
2.27665e-06
0.000241547
4.5125e-06
0.000244206
6.61527e-06
0.000243523
0.000242496
8.5224e-06
1.92513e-06
0.000239622
3.81703e-06
0.000242314
5.59885e-06
0.000241741
0.000240877
7.21841e-06
1.62967e-06
0.000237992
3.23202e-06
0.000240712
4.74285e-06
0.00024023
0.000239501
6.11848e-06
1.38068e-06
0.000236611
2.73879e-06
0.000239354
4.02064e-06
0.000238948
0.000238332
5.18954e-06
1.17054e-06
0.000235441
2.32227e-06
0.000238202
3.4101e-06
0.00023786
0.000237339
4.40322e-06
9.92807e-07
0.000234448
1.96998e-06
0.000237225
2.89363e-06
0.000236936
0.000236495
3.73761e-06
8.42447e-07
0.000233605
1.67166e-06
0.000236395
2.45579e-06
0.000236152
0.000235778
3.1729e-06
7.14907e-07
0.00023289
1.41887e-06
0.000235691
2.08468e-06
0.000235486
0.000235168
2.69392e-06
6.068e-07
0.000232283
1.20442e-06
0.000235094
1.76969e-06
0.000234921
0.000234651
2.28706e-06
5.1511e-07
0.000231768
1.0222e-06
0.000234586
1.50199e-06
0.000234441
0.000234212
1.94133e-06
4.37156e-07
0.000231331
8.67637e-07
0.000234156
1.27481e-06
0.000234034
0.000233839
1.64751e-06
3.70767e-07
0.00023096
7.35724e-07
0.000233791
1.08126e-06
0.000233688
0.000233522
1.39768e-06
3.14728e-07
0.000230645
6.24346e-07
0.000233481
9.17252e-07
0.000233395
0.000233254
1.18522e-06
2.6653e-07
0.000230379
5.28956e-07
0.000233219
7.77279e-07
0.000233147
0.000233027
1.00469e-06
2.26156e-07
0.000230152
4.48547e-07
0.000232996
6.58669e-07
0.000232937
0.000232834
8.50966e-07
1.91437e-07
0.000229961
3.79711e-07
0.000232808
5.57671e-07
0.000232759
0.000232672
7.20196e-07
1.61942e-07
0.000229799
3.21119e-07
0.000232649
4.71694e-07
0.000232608
0.000232534
6.09293e-07
1.37096e-07
0.000229662
2.71559e-07
0.000232514
3.98678e-07
0.000232481
0.000232418
5.14822e-07
1.15767e-07
0.000229546
2.29336e-07
0.000232401
3.36487e-07
0.000232374
0.00023232
4.34382e-07
9.76422e-08
0.000229448
1.93632e-07
0.000232305
2.83833e-07
0.000232283
0.000232238
3.66278e-07
8.23663e-08
0.000229366
1.63131e-07
0.000232224
2.39178e-07
0.000232207
0.000232168
3.08336e-07
6.94026e-08
0.000229296
1.36979e-07
0.000232156
2.01099e-07
0.000232143
0.00023211
2.59012e-07
5.83751e-08
0.000229238
1.15089e-07
0.000232099
1.68781e-07
0.000232089
0.000232062
2.17404e-07
4.89125e-08
0.000229189
9.66612e-08
0.000232052
1.41355e-07
0.000232045
0.000232021
1.8213e-07
4.08863e-08
0.000229148
8.08386e-08
0.000232011
1.18093e-07
0.000232007
0.000231987
1.52018e-07
3.41938e-08
0.000229114
6.73786e-08
0.000231978
9.84831e-08
0.000231976
0.000231959
1.26517e-07
2.85491e-08
0.000229085
5.60482e-08
0.000231951
8.18996e-08
0.00023195
0.000231936
1.05052e-07
2.372e-08
0.000229061
4.64374e-08
0.000231928
6.77752e-08
0.000231929
0.000231916
8.6893e-08
1.96105e-08
0.000229042
3.83186e-08
0.000231909
5.58211e-08
0.000231911
0.000231901
7.15114e-08
1.61643e-08
0.000229025
3.15219e-08
0.000231894
4.57881e-08
0.000231897
0.000231888
5.85353e-08
1.32321e-08
0.000229012
2.57641e-08
0.000231881
3.73238e-08
0.000231885
0.000231878
4.75817e-08
1.07639e-08
0.000229001
2.08687e-08
0.000231871
3.01515e-08
0.000231876
0.000231869
3.83364e-08
8.70998e-09
0.000228992
1.67351e-08
0.000231863
2.41321e-08
0.000231869
0.000231863
3.05512e-08
6.99524e-09
0.000228985
1.3276e-08
0.000231857
1.90795e-08
0.000231863
0.000231858
2.40188e-08
5.53446e-09
0.00022898
1.03863e-08
0.000231852
1.48347e-08
0.000231858
0.000231854
1.85427e-08
4.29277e-09
0.000228975
7.95488e-09
0.000231848
1.12295e-08
0.000231855
0.000231851
1.39248e-08
3.24601e-09
0.000228972
5.90786e-09
0.000231845
8.199e-09
0.000231852
0.000231849
1.00522e-08
2.38061e-09
0.00022897
4.18e-09
0.000231843
5.68954e-09
0.000231851
0.000231848
6.80824e-09
1.65591e-09
0.000228968
2.73384e-09
0.000231842
3.59626e-09
0.00023185
0.000231848
4.08118e-09
1.04229e-09
0.000228967
1.52207e-09
0.000231842
1.82091e-09
0.00023185
0.000231848
1.79093e-09
5.3588e-10
0.000228966
4.92793e-10
0.000231842
3.11977e-10
0.00023185
0.000231848
-1.21099e-10
1.16477e-10
0.000228966
-3.68217e-10
0.000231842
-9.46279e-10
0.00023185
0.000231849
-1.71011e-09
-2.46144e-10
0.000228966
-1.08164e-09
0.000231843
-1.99695e-09
0.000231851
0.00023185
-3.04362e-09
-5.58373e-10
0.000228967
-1.67941e-09
0.000231844
-2.89507e-09
0.000231852
0.000231851
-4.20098e-09
-8.34425e-10
0.000228967
-2.19719e-09
0.000231845
-3.67958e-09
0.000231854
0.000231852
-5.19298e-09
-1.05158e-09
0.000228968
-2.66197e-09
0.000231847
-4.34221e-09
0.000231855
0.000231854
-6.04313e-09
-1.24244e-09
0.00022897
-3.05967e-09
0.000231849
-4.90025e-09
0.000231857
0.000231856
-6.77331e-09
-1.41795e-09
0.000228971
-3.40604e-09
0.000231851
-5.39639e-09
0.000231859
0.000231858
-7.4412e-09
-1.58346e-09
0.000228973
-3.72396e-09
0.000231853
-5.87183e-09
0.000231861
0.00023186
-8.06768e-09
-1.73105e-09
0.000228974
-4.03359e-09
0.000231855
-6.323e-09
0.000231863
0.000231862
-8.64306e-09
-1.8696e-09
0.000228976
-4.31981e-09
0.000231857
-6.74046e-09
0.000231866
0.000231865
-9.17217e-09
-2.01953e-09
0.000228978
-4.5849e-09
0.00023186
-7.13418e-09
0.000231868
0.000231867
-9.68702e-09
-2.17674e-09
0.00022898
-4.84896e-09
0.000231862
-7.53612e-09
0.000231871
0.00023187
-1.0217e-08
-2.31801e-09
0.000228982
-5.12727e-09
0.000231865
-7.96593e-09
0.000231874
0.000231873
-1.07648e-08
-2.43905e-09
0.000228985
-5.42573e-09
0.000231868
-8.39698e-09
0.000231877
0.000231875
-1.13169e-08
-2.57213e-09
0.000228987
-5.7274e-09
0.000231871
-8.83456e-09
0.00023188
0.000231878
-1.18866e-08
-2.73789e-09
0.00022899
-6.04013e-09
0.000231874
-9.29667e-09
0.000231883
0.000231882
-1.25079e-08
-2.92807e-09
0.000228993
-6.38407e-09
0.000231878
-9.81189e-09
0.000231886
0.000231885
-1.31909e-08
-3.118e-09
0.000228996
-6.75877e-09
0.000231881
-1.03756e-08
0.00023189
0.000231888
-1.39288e-08
-3.30554e-09
0.000228999
-7.16352e-09
0.000231885
-1.09758e-08
0.000231894
0.000231892
-1.47192e-08
-3.51701e-09
0.000229002
-7.59702e-09
0.000231889
-1.16172e-08
0.000231897
0.000231896
-1.5572e-08
-3.76992e-09
0.000229006
-8.06569e-09
0.000231893
-1.23255e-08
0.000231902
0.0002319
-1.65122e-08
-4.04785e-09
0.00022901
-8.59192e-09
0.000231898
-1.3111e-08
0.000231906
0.000231905
-1.75565e-08
-4.33425e-09
0.000229014
-9.17137e-09
0.000231903
-1.39787e-08
0.000231911
0.000231909
-1.86998e-08
-4.63159e-09
0.000229019
-9.80418e-09
0.000231908
-1.49176e-08
0.000231916
0.000231914
-1.99352e-08
-4.96298e-09
0.000229024
-1.04809e-08
0.000231913
-1.59268e-08
0.000231921
0.000231919
-2.12708e-08
-5.33702e-09
0.000229029
-1.1219e-08
0.000231919
-1.70326e-08
0.000231927
0.000231925
-2.27368e-08
-5.74663e-09
0.000229035
-1.20277e-08
0.000231925
-1.82415e-08
0.000231933
0.000231931
-2.43353e-08
-6.17646e-09
0.000229041
-1.29074e-08
0.000231932
-1.95548e-08
0.00023194
0.000231938
-2.60741e-08
-6.644e-09
0.000229048
-1.38601e-08
0.000231939
-2.09767e-08
0.000231947
0.000231945
-2.79577e-08
-7.16347e-09
0.000229055
-1.48914e-08
0.000231947
-2.25215e-08
0.000231955
0.000231952
-3.00077e-08
-7.74549e-09
0.000229062
-1.60178e-08
0.000231955
-2.421e-08
0.000231963
0.00023196
-3.22532e-08
-8.36957e-09
0.000229071
-1.72565e-08
0.000231964
-2.6062e-08
0.000231971
0.000231969
-3.47087e-08
-9.02737e-09
0.00022908
-1.86e-08
0.000231974
-2.80782e-08
0.000231981
0.000231978
-3.73804e-08
-9.72914e-09
0.000229089
-2.00609e-08
0.000231984
-3.02599e-08
0.000231991
0.000231988
-4.02669e-08
-1.05065e-08
0.0002291
-2.16348e-08
0.000231995
-3.26136e-08
0.000232002
0.000231999
-4.33897e-08
-1.13681e-08
0.000229111
-2.33462e-08
0.000232007
-3.51701e-08
0.000232014
0.00023201
-4.67723e-08
-1.23169e-08
0.000229123
-2.51996e-08
0.00023202
-3.79458e-08
0.000232026
0.000232023
-5.04496e-08
-1.33222e-08
0.000229137
-2.72178e-08
0.000232033
-4.09593e-08
0.00023204
0.000232036
-5.44377e-08
-1.43896e-08
0.000229151
-2.94026e-08
0.000232048
-4.42242e-08
0.000232055
0.00023205
-5.87684e-08
-1.55507e-08
0.000229166
-3.17658e-08
0.000232065
-4.77619e-08
0.000232071
0.000232066
-6.34578e-08
-1.68319e-08
0.000229183
-3.43311e-08
0.000232082
-5.15944e-08
0.000232088
0.000232083
-6.85421e-08
-1.82448e-08
0.000229201
-3.71127e-08
0.000232101
-5.57531e-08
0.000232107
0.000232101
-7.40518e-08
-1.97658e-08
0.000229221
-4.01291e-08
0.000232121
-6.02614e-08
0.000232127
0.000232121
-8.00179e-08
-2.13883e-08
0.000229242
-4.33924e-08
0.000232143
-6.5139e-08
0.000232148
0.000232142
-8.64767e-08
-2.3122e-08
0.000229265
-4.69173e-08
0.000232167
-7.04128e-08
0.000232172
0.000232165
-9.34678e-08
-2.50071e-08
0.00022929
-5.07328e-08
0.000232193
-7.61242e-08
0.000232197
0.00023219
-1.01047e-07
-2.70739e-08
0.000229317
-5.4874e-08
0.00023222
-8.2321e-08
0.000232225
0.000232217
-1.09266e-07
-2.93412e-08
0.000229347
-5.93694e-08
0.00023225
-8.90428e-08
0.000232254
0.000232246
-1.18174e-07
-3.17899e-08
0.000229378
-6.42404e-08
0.000232283
-9.63284e-08
0.000232286
0.000232278
-1.27806e-07
-3.44068e-08
0.000229413
-6.95068e-08
0.000232318
-1.04191e-07
0.000232321
0.000232311
-1.38219e-07
-3.72127e-08
0.00022945
-7.51929e-08
0.000232356
-1.12694e-07
0.000232358
0.000232348
-1.49479e-07
-4.02452e-08
0.00022949
-8.13331e-08
0.000232397
-1.21873e-07
0.000232399
0.000232388
-1.61659e-07
-4.35614e-08
0.000229534
-8.7989e-08
0.000232441
-1.31828e-07
0.000232443
0.000232431
-1.74861e-07
-4.71814e-08
0.000229581
-9.52026e-08
0.000232489
-1.42624e-07
0.00023249
0.000232477
-1.89164e-07
-5.11189e-08
0.000229632
-1.03034e-07
0.000232541
-1.54324e-07
0.000232541
0.000232528
-2.04669e-07
-5.53588e-08
0.000229687
-1.11516e-07
0.000232597
-1.67002e-07
0.000232597
0.000232582
-2.21452e-07
-5.99207e-08
0.000229747
-1.20679e-07
0.000232658
-1.80692e-07
0.000232657
0.000232641
-2.3957e-07
-6.48169e-08
0.000229812
-1.30566e-07
0.000232723
-1.95489e-07
0.000232722
0.000232705
-2.59192e-07
-7.01433e-08
0.000229882
-1.41286e-07
0.000232795
-2.1152e-07
0.000232792
0.000232774
-2.80434e-07
-7.59402e-08
0.000229958
-1.52889e-07
0.000232871
-2.28875e-07
0.000232868
0.000232848
-3.03433e-07
-8.22189e-08
0.00023004
-1.65454e-07
0.000232955
-2.47672e-07
0.00023295
0.000232929
-3.2835e-07
-8.90163e-08
0.000230129
-1.79076e-07
0.000233045
-2.68047e-07
0.000233039
0.000233016
-3.55336e-07
-9.63707e-08
0.000230225
-1.9384e-07
0.000233142
-2.90106e-07
0.000233135
0.00023311
-3.84541e-07
-1.04313e-07
0.000230329
-2.09808e-07
0.000233248
-3.13966e-07
0.000233239
0.000233212
-4.16139e-07
-1.12907e-07
0.000230442
-2.27076e-07
0.000233362
-3.39784e-07
0.000233352
0.000233323
-4.50336e-07
-1.22228e-07
0.000230564
-2.45773e-07
0.000233485
-3.67733e-07
0.000233474
0.000233443
-4.8738e-07
-1.32349e-07
0.000230697
-2.6603e-07
0.000233619
-3.98023e-07
0.000233606
0.000233572
-5.27516e-07
-1.43324e-07
0.00023084
-2.8799e-07
0.000233763
-4.30856e-07
0.000233748
0.000233712
-5.71011e-07
-1.55201e-07
0.000230995
-3.11785e-07
0.00023392
-4.66428e-07
0.000233903
0.000233864
-6.18114e-07
-1.68037e-07
0.000231163
-3.37553e-07
0.000234089
-5.04943e-07
0.00023407
0.000234028
-6.69117e-07
-1.81925e-07
0.000231345
-3.65449e-07
0.000234273
-5.46638e-07
0.000234252
0.000234206
-7.24352e-07
-1.96965e-07
0.000231542
-3.95658e-07
0.000234472
-5.91816e-07
0.000234448
0.000234398
-7.84198e-07
-2.13291e-07
0.000231755
-4.2842e-07
0.000234687
-6.40797e-07
0.00023466
0.000234606
-8.4908e-07
-2.31024e-07
0.000231986
-4.63952e-07
0.00023492
-6.93911e-07
0.00023489
0.000234832
-9.19422e-07
-2.50254e-07
0.000232236
-5.02484e-07
0.000235172
-7.515e-07
0.000235139
0.000235076
-9.95669e-07
-2.71086e-07
0.000232507
-5.44257e-07
0.000235445
-8.13921e-07
0.000235409
0.00023534
-1.07831e-06
-2.93658e-07
0.000232801
-5.89538e-07
0.000235741
-8.8159e-07
0.000235701
0.000235626
-1.16791e-06
-3.18141e-07
0.000233119
-6.38644e-07
0.000236061
-9.5498e-07
0.000236017
0.000235936
-1.26509e-06
-3.44713e-07
0.000233464
-6.91934e-07
0.000236408
-1.03462e-06
0.00023636
0.000236272
-1.37054e-06
-3.7357e-07
0.000233837
-7.49778e-07
0.000236785
-1.12107e-06
0.000236731
0.000236636
-1.48498e-06
-4.04896e-07
0.000234242
-8.12575e-07
0.000237192
-1.2149e-06
0.000237133
0.00023703
-1.60919e-06
-4.38896e-07
0.000234681
-8.80748e-07
0.000237634
-1.31676e-06
0.000237569
0.000237458
-1.74401e-06
-4.75819e-07
0.000235157
-9.54782e-07
0.000238113
-1.42738e-06
0.000238042
0.000237921
-1.89043e-06
-5.15945e-07
0.000235673
-1.03523e-06
0.000238632
-1.54758e-06
0.000238554
0.000238423
-2.04951e-06
-5.59561e-07
0.000236232
-1.12269e-06
0.000239195
-1.67825e-06
0.000239109
0.000238967
-2.22241e-06
-6.06989e-07
0.000236839
-1.21781e-06
0.000239806
-1.82031e-06
0.000239712
0.000239557
-2.41035e-06
-6.58576e-07
0.000237498
-1.32126e-06
0.000240469
-1.9748e-06
0.000240365
0.000240197
-2.61471e-06
-7.14729e-07
0.000238212
-1.43383e-06
0.000241188
-2.1429e-06
0.000241074
0.000240891
-2.83707e-06
-7.759e-07
0.000238988
-1.5564e-06
0.000241968
-2.32594e-06
0.000241844
0.000241644
-3.07916e-06
-8.42579e-07
0.000239831
-1.68996e-06
0.000242816
-2.52536e-06
0.000242679
0.000242461
-3.34287e-06
-9.15269e-07
0.000240746
-1.83558e-06
0.000243736
-2.74275e-06
0.000243586
0.000243349
-3.63025e-06
-9.94547e-07
0.00024174
-1.99442e-06
0.000244736
-2.97982e-06
0.000244572
0.000244313
-3.94359e-06
-1.08102e-06
0.000242821
-2.16774e-06
0.000245822
-3.23851e-06
0.000245642
0.000245359
-4.28545e-06
-1.17552e-06
0.000243997
-2.35708e-06
0.000247004
-3.52102e-06
0.000246806
0.000246497
-4.65872e-06
-1.2788e-06
0.000245276
-2.56402e-06
0.000248289
-3.82981e-06
0.000248072
0.000247734
-5.06662e-06
-1.39187e-06
0.000246667
-2.79051e-06
0.000249688
-4.16766e-06
0.000249449
0.000249079
-5.51276e-06
-1.51575e-06
0.000248183
-3.0386e-06
0.000251211
-4.53761e-06
0.000250948
0.000250542
-6.00111e-06
-1.65158e-06
0.000249835
-3.31056e-06
0.000252869
-4.94307e-06
0.000252581
0.000252135
-6.53616e-06
-1.80066e-06
0.000251635
-3.60902e-06
0.000254678
-5.3879e-06
0.00025436
0.000253871
-7.12299e-06
-1.96449e-06
0.0002536
-3.93694e-06
0.00025665
-5.87655e-06
0.000256299
0.000255761
-7.76738e-06
-2.14479e-06
0.000255745
-4.29774e-06
0.000258803
-6.41404e-06
0.000258415
0.000257823
-8.47588e-06
-2.34349e-06
0.000258088
-4.69529e-06
0.000261155
-7.00605e-06
0.000260726
0.000260073
-9.25585e-06
-2.56278e-06
0.000260651
-5.13396e-06
0.000263726
-7.65904e-06
0.000263251
0.00026253
-1.01157e-05
-2.8052e-06
0.000263456
-5.61877e-06
0.00026654
-8.38039e-06
0.000266013
0.000265214
-1.1065e-05
-3.07367e-06
0.00026653
-6.15554e-06
0.000269621
-9.17871e-06
0.000269036
0.00026815
-1.2115e-05
-3.37165e-06
0.000269901
-6.75104e-06
0.000273001
-1.0064e-05
0.000272349
0.000271365
-1.32785e-05
-3.70305e-06
0.000273604
-7.4131e-06
0.000276711
-1.10476e-05
0.000275983
0.000274888
-1.45702e-05
-4.07244e-06
0.000277677
-8.15077e-06
0.000280789
-1.21428e-05
0.000279975
0.000278752
-1.60073e-05
-4.48516e-06
0.000282162
-8.97467e-06
0.000285279
-1.33652e-05
0.000284366
0.000282997
-1.76098e-05
-4.94762e-06
0.000287109
-9.89741e-06
0.000290228
-1.47333e-05
0.000289201
0.000287665
-1.94015e-05
-5.46744e-06
0.000292577
-1.0934e-05
0.000295695
-1.62688e-05
0.000294536
0.000292806
-2.141e-05
-6.05361e-06
0.00029863
-1.21021e-05
0.000301743
-1.79974e-05
0.000300432
0.000298477
-2.3668e-05
-6.71686e-06
0.000305347
-1.3423e-05
0.000308449
-1.995e-05
0.000306959
0.000304741
-2.62149e-05
-7.47027e-06
0.000312817
-1.49223e-05
0.000315901
-2.21638e-05
0.0003142
0.000311675
-2.90979e-05
-8.32993e-06
0.000321147
-1.66315e-05
0.000324203
-2.46839e-05
0.000322252
0.000319365
-3.23734e-05
-9.31543e-06
0.000330463
-1.85887e-05
0.000333476
-2.75652e-05
0.000331229
0.00032791
-3.61104e-05
-1.04508e-05
0.000340913
-2.08413e-05
0.000343867
-3.08753e-05
0.000341263
0.000337428
-4.03931e-05
-1.17664e-05
0.00035268
-2.3448e-05
0.000355548
-3.4698e-05
0.000352513
0.000348055
-4.53256e-05
-1.33006e-05
0.00036598
-2.6483e-05
0.00036873
-3.91384e-05
0.000365168
0.000359954
-5.10366e-05
-1.5102e-05
0.000381082
-3.00405e-05
0.000383669
-4.43289e-05
0.000379457
0.000373313
-5.76879e-05
-1.72335e-05
0.000398316
-3.42415e-05
0.000400677
-5.04389e-05
0.000395654
0.000388358
-6.54841e-05
-1.97772e-05
0.000418093
-3.9243e-05
0.000420143
-5.76863e-05
0.000414097
0.000405357
-7.46859e-05
-2.28421e-05
0.000440935
-4.52523e-05
0.000442553
-6.6356e-05
0.000435201
0.000424631
-8.56293e-05
-2.65743e-05
0.000467509
-5.25458e-05
0.000468524
-7.68242e-05
0.000459479
0.000446559
-9.87526e-05
-3.11731e-05
0.000498682
-6.14978e-05
0.000498849
-8.95949e-05
0.000487576
0.000471597
-0.000114633
-3.69151e-05
0.000535597
-7.26235e-05
0.000534557
-0.000105352
0.000520304
0.000500283
-0.000134038
-4.41914e-05
0.000579789
-8.66447e-05
0.000577011
-0.000125038
0.000558697
0.00053325
-0.000158005
-5.35634e-05
0.000633352
-0.000104589
0.000628036
-0.000149973
0.000604082
0.000571224
-0.000187947
-6.58525e-05
0.000699205
-0.000127948
0.000690132
-0.000182039
0.000658173
0.000615004
-0.000225819
-8.22706e-05
0.000781475
-0.00015893
0.000766792
-0.000223971
0.000723213
0.000665395
-0.000274363
-0.000104626
0.000886102
-0.000200829
0.000862994
-0.000279786
0.00080217
0.000723072
-0.000337463
-0.000135489
0.00102159
-0.000258884
0.000986389
-0.000355865
0.000899151
0.000788003
-0.000420796
-0.000178719
0.00120031
-0.000339624
0.00114729
-0.000460873
0.0010204
0.000859798
-0.000532668
-0.000238366
0.00143868
-0.000459553
0.00136848
-0.000614802
0.00117565
0.000930665
-0.000685669
-0.00032957
0.00176825
-0.000619479
0.00165839
-0.000834191
0.00139036
0.00100898
-0.000912505
-0.000415388
0.00218363
-0.000817558
0.00206056
-0.00113846
0.00171126
0.00107674
-0.00120622
-0.000752016
-0.00142189
-0.00181752
-0.00195047
0.000202442
0.000312465
0.000286174
0.00055508
0.00033934
0.000520807
0.000364455
0.000412258
0.000366883
0.000321296
0.0003579
0.000251266
0.000344838
0.000198579
0.00033116
0.000158662
0.000318159
0.000127931
0.000306332
0.000103941
0.000295835
8.50154e-05
0.000286652
6.99427e-05
0.000278692
5.78348e-05
0.000271832
4.80342e-05
0.000265942
4.00469e-05
0.000260897
3.34978e-05
0.000256584
2.80992e-05
0.0002529
2.36274e-05
0.000249757
1.99082e-05
0.000247076
1.68034e-05
0.000244791
1.42033e-05
0.000242843
1.20198e-05
0.000241183
1.01819e-05
0.000239769
8.63205e-06
0.000238566
7.32221e-06
0.000237541
6.2144e-06
0.000236668
5.27543e-06
0.000235926
4.47963e-06
0.000235295
3.80394e-06
0.000234759
3.23037e-06
0.000234303
2.74289e-06
0.000233916
2.32847e-06
0.000233587
1.97601e-06
0.000233308
1.67654e-06
0.000233072
1.4213e-06
0.000232872
1.20466e-06
0.000232703
1.02027e-06
0.000232559
8.63319e-07
0.000232439
7.29996e-07
0.000232337
6.16478e-07
0.000232251
5.20086e-07
0.000232179
4.38427e-07
0.000232118
3.68907e-07
0.000232068
3.09706e-07
0.000232025
2.59582e-07
0.00023199
2.17162e-07
0.000231961
1.812e-07
0.000231937
1.50761e-07
0.000231917
1.24997e-07
0.0002319
1.03173e-07
0.000231887
8.47279e-08
0.000231876
6.91897e-08
0.000231868
5.61057e-08
0.000231861
4.50612e-08
0.000231856
3.57561e-08
0.000231852
2.79284e-08
0.000231849
2.13911e-08
0.000231847
1.59003e-08
0.000231846
1.12869e-08
0.000231845
7.4278e-09
0.000231845
4.19071e-09
0.000231845
1.47045e-09
0.000231846
-8.1889e-10
0.000231847
-2.73907e-09
0.000231848
-4.3602e-09
0.000231849
-5.72021e-09
0.000231851
-6.88068e-09
0.000231853
-7.86861e-09
0.000231855
-8.73746e-09
0.000231857
-9.52754e-09
0.000231859
-1.02623e-08
0.000231861
-1.09477e-08
0.000231863
-1.15965e-08
0.000231866
-1.22305e-08
0.000231869
-1.28754e-08
0.000231871
-1.35285e-08
0.000231874
-1.42009e-08
0.000231877
-1.49047e-08
0.00023188
-1.56705e-08
0.000231883
-1.65062e-08
0.000231887
-1.7414e-08
0.00023189
-1.83847e-08
0.000231894
-1.94411e-08
0.000231898
-2.06072e-08
0.000231903
-2.1898e-08
0.000231907
-2.33039e-08
0.000231912
-2.48302e-08
0.000231917
-2.64848e-08
0.000231923
-2.8298e-08
0.000231929
-3.02786e-08
0.000231935
-3.24312e-08
0.000231942
-3.47708e-08
0.000231949
-3.73172e-08
0.000231957
-4.01009e-08
0.000231965
-4.31414e-08
0.000231974
-4.64476e-08
0.000231984
-5.00263e-08
0.000231994
-5.38916e-08
0.000232006
-5.80778e-08
0.000232018
-6.2626e-08
0.000232031
-6.75728e-08
0.000232045
-7.29431e-08
0.00023206
-7.87607e-08
0.000232077
-8.50633e-08
0.000232094
-9.18853e-08
0.000232114
-9.92723e-08
0.000232134
-1.07274e-07
0.000232157
-1.1595e-07
0.000232181
-1.25351e-07
0.000232207
-1.35535e-07
0.000232236
-1.46557e-07
0.000232266
-1.58487e-07
0.000232299
-1.71378e-07
0.000232335
-1.85335e-07
0.000232374
-2.00437e-07
0.000232416
-2.16807e-07
0.000232461
-2.34528e-07
0.00023251
-2.53726e-07
0.000232563
-2.74512e-07
0.00023262
-2.96952e-07
0.000232682
-3.21269e-07
0.00023275
-3.47599e-07
0.000232822
-3.76098e-07
0.000232901
-4.06966e-07
0.000232986
-4.40391e-07
0.000233078
-4.76559e-07
0.000233177
-5.15694e-07
0.000233285
-5.58064e-07
0.000233402
-6.03957e-07
0.000233528
-6.53682e-07
0.000233664
-7.07545e-07
0.000233812
-7.65877e-07
0.000233972
-8.29035e-07
0.000234145
-8.97444e-07
0.000234332
-9.71579e-07
0.000234535
-1.05193e-06
0.000234754
-1.13903e-06
0.000234992
-1.23342e-06
0.00023525
-1.33573e-06
0.000235528
-1.44665e-06
0.00023583
-1.56697e-06
0.000236157
-1.69751e-06
0.000236511
-1.83915e-06
0.000236895
-1.99285e-06
0.00023731
-2.15968e-06
0.000237761
-2.34085e-06
0.000238249
-2.53766e-06
0.000238778
-2.7515e-06
0.000239352
-2.98392e-06
0.000239973
-3.23663e-06
0.000240648
-3.51156e-06
0.000241379
-3.81082e-06
0.000242173
-4.13672e-06
0.000243035
-4.49179e-06
0.00024397
-4.87882e-06
0.000244985
-5.30098e-06
0.000246089
-5.7618e-06
0.000247287
-6.26522e-06
0.00024859
-6.81562e-06
0.000250007
-7.41786e-06
0.000251548
-8.07742e-06
0.000253225
-8.8005e-06
0.000255052
-9.59413e-06
0.000257042
-1.04662e-05
0.000259212
-1.14257e-05
0.000261579
-1.24826e-05
0.000264163
-1.36488e-05
0.000266986
-1.49377e-05
0.000270072
-1.63646e-05
0.000273448
-1.79472e-05
0.000277147
-1.97059e-05
0.000281202
-2.1665e-05
0.000285653
-2.38522e-05
0.000290543
-2.63005e-05
0.000295924
-2.90485e-05
0.000301851
-3.21424e-05
0.000308391
-3.56372e-05
0.000315616
-3.95985e-05
0.000323611
-4.4106e-05
0.000332474
-4.92562e-05
0.000342316
-5.51674e-05
0.000353264
-6.19847e-05
0.000365465
-6.98886e-05
0.000379085
-7.91045e-05
0.000394315
-8.99162e-05
0.00041137
-0.000102684
0.000430485
-0.000117868
0.000451914
-0.000136062
0.000475917
-0.000158041
0.000502726
-0.000184814
0.000532495
-0.000217717
0.000565196
-0.00025852
0.000600418
-0.000309584
0.000637019
-0.000374064
0.000672386
-0.000456163
0.00070128
-0.000561563
0.000712132
-0.000696522
0.000673668
-0.00087404
0.000545979
-0.00107853
-0.00140449
-1.24379e-05
0.000324902
0.000103709
0.000438933
0.000209682
0.000414833
0.000267842
0.000354098
0.000294591
0.000294548
0.000303709
0.000242148
0.000303833
0.000198454
0.000299676
0.000162819
0.000293666
0.000133942
0.00028706
0.000110547
0.000280517
9.15574e-05
0.00027437
7.60902e-05
0.000268765
6.34395e-05
0.000263752
5.30478e-05
0.000259323
4.44753e-05
0.000255446
3.73752e-05
0.000252072
3.1473e-05
0.00024915
2.65496e-05
0.000246627
2.24303e-05
0.000244456
1.89745e-05
0.000242591
1.60681e-05
0.000240992
1.36191e-05
0.000239622
1.15513e-05
0.000238451
9.80332e-06
0.00023745
8.32298e-06
0.000236596
7.06863e-06
0.000235867
6.00405e-06
0.000235246
5.10045e-06
0.000234718
4.33263e-06
0.000234268
3.68004e-06
0.000233886
3.12526e-06
0.000233561
2.6532e-06
0.000233285
2.25158e-06
0.000233052
1.91003e-06
0.000232854
1.61936e-06
0.000232686
1.3722e-06
0.000232545
1.16156e-06
0.000232425
9.82658e-07
0.000232324
8.30829e-07
0.000232239
7.01375e-07
0.000232168
5.91204e-07
0.000232109
4.97825e-07
0.000232059
4.18645e-07
0.000232017
3.51403e-07
0.000231982
2.94318e-07
0.000231954
2.45884e-07
0.00023193
2.04869e-07
0.00023191
1.70178e-07
0.000231894
1.40838e-07
0.000231882
1.16033e-07
0.000231871
9.50986e-08
0.000231863
7.74431e-08
0.000231856
6.25534e-08
0.000231851
5.00135e-08
0.000231848
3.94776e-08
0.000231845
3.06321e-08
0.000231843
2.3213e-08
0.000231842
1.69501e-08
0.000231841
1.17103e-08
0.000231841
7.36282e-09
0.000231842
3.74629e-09
0.000231842
7.03967e-10
0.000231843
-1.85297e-09
0.000231845
-3.99673e-09
0.000231846
-5.80402e-09
0.000231848
-7.35619e-09
0.000231849
-8.68917e-09
0.000231851
-9.83178e-09
0.000231853
-1.08164e-08
0.000231855
-1.16977e-08
0.000231858
-1.25218e-08
0.00023186
-1.32901e-08
0.000231862
-1.40208e-08
0.000231865
-1.47431e-08
0.000231867
-1.54819e-08
0.00023187
-1.62438e-08
0.000231873
-1.7032e-08
0.000231876
-1.78603e-08
0.000231879
-1.87608e-08
0.000231882
-1.97465e-08
0.000231885
-2.08075e-08
0.000231889
-2.1954e-08
0.000231892
-2.32057e-08
0.000231896
-2.45872e-08
0.0002319
-2.61076e-08
0.000231905
-2.77684e-08
0.00023191
-2.95749e-08
0.000231915
-3.15363e-08
0.00023192
-3.36861e-08
0.000231926
-3.60407e-08
0.000231932
-3.85953e-08
0.000231938
-4.13703e-08
0.000231945
-4.43938e-08
0.000231953
-4.76997e-08
0.000231961
-5.13098e-08
0.00023197
-5.52296e-08
0.000231979
-5.9465e-08
0.000231989
-6.40445e-08
0.000232
-6.90121e-08
0.000232012
-7.4416e-08
0.000232024
-8.02954e-08
0.000232038
-8.66743e-08
0.000232053
-9.35813e-08
0.000232069
-1.01054e-07
0.000232086
-1.09144e-07
0.000232105
-1.17908e-07
0.000232125
-1.27417e-07
0.000232146
-1.37717e-07
0.00023217
-1.48873e-07
0.000232195
-1.6095e-07
0.000232223
-1.74024e-07
0.000232252
-1.88166e-07
0.000232284
-2.03471e-07
0.000232319
-2.20047e-07
0.000232357
-2.37977e-07
0.000232397
-2.57405e-07
0.000232441
-2.78434e-07
0.000232488
-3.01205e-07
0.00023254
-3.2586e-07
0.000232595
-3.52486e-07
0.000232655
-3.81346e-07
0.00023272
-4.12593e-07
0.00023279
-4.46418e-07
0.000232866
-4.83039e-07
0.000232949
-5.22677e-07
0.000233038
-5.65578e-07
0.000233134
-6.12012e-07
0.000233238
-6.62284e-07
0.000233351
-7.16737e-07
0.000233473
-7.75728e-07
0.000233605
-8.39617e-07
0.000233748
-9.08789e-07
0.000233902
-9.83693e-07
0.00023407
-1.06484e-06
0.000234251
-1.15276e-06
0.000234447
-1.24806e-06
0.000234659
-1.35133e-06
0.000234889
-1.46323e-06
0.000235138
-1.58452e-06
0.000235407
-1.71602e-06
0.000235699
-1.85866e-06
0.000236015
-2.01339e-06
0.000236357
-2.18124e-06
0.000236727
-2.36336e-06
0.000237128
-2.56103e-06
0.000237563
-2.77565e-06
0.000238034
-3.00876e-06
0.000238545
-3.26199e-06
0.000239098
-3.53718e-06
0.000239698
-3.83634e-06
0.000240348
-4.16175e-06
0.000241053
-4.51588e-06
0.000241817
-4.9014e-06
0.000242647
-5.3213e-06
0.000243547
-5.77887e-06
0.000244524
-6.27781e-06
0.000245584
-6.82227e-06
0.000246736
-7.41684e-06
0.000247987
-8.0666e-06
0.000249346
-8.77722e-06
0.000250824
-9.55509e-06
0.00025243
-1.04074e-05
0.000254179
-1.13424e-05
0.000256081
-1.2369e-05
0.000258153
-1.34977e-05
0.000260411
-1.47401e-05
0.000262872
-1.61098e-05
0.000265556
-1.76221e-05
0.000268486
-1.92946e-05
0.000271686
-2.11473e-05
0.000275184
-2.32038e-05
0.00027901
-2.54912e-05
0.000283199
-2.80409e-05
0.000287788
-3.08899e-05
0.000292821
-3.40816e-05
0.000298346
-3.76671e-05
0.000304416
-4.17071e-05
0.000311091
-4.62739e-05
0.000318439
-5.14541e-05
0.000326535
-5.73521e-05
0.000335462
-6.40942e-05
0.000345312
-7.18346e-05
0.000356185
-8.07617e-05
0.000368188
-9.11078e-05
0.000381433
-0.000103161
0.00039603
-0.000117281
0.000412077
-0.000133915
0.000429645
-0.00015363
0.000448741
-0.000177138
0.000469267
-0.00020534
0.000490926
-0.000239376
0.000513086
-0.00028068
0.000534539
-0.000331038
0.000553111
-0.000392636
0.000565001
-0.000468053
0.000563537
-0.000560099
0.000538495
-0.00067148
0.000467037
-0.000802583
0.00034276
-0.000954256
-0.00106173
5.84972e-06
0.000319053
8.68673e-05