/*--------------------------------*- C++ -*----------------------------------*\
  =========                 |
  \\      /  F ield         | OpenFOAM: The Open Source CFD Toolbox
   \\    /   O peration     | Website:  https://openfoam.org
    \\  /    A nd           | Version:  dev
     \\/     M anipulation  |
\*---------------------------------------------------------------------------*/
FoamFile
{
    version     2.0;
    format      ascii;
    class       volVectorField;
    location    "1";
    object      U;
}
// * * * * * * * * * * * * * * * * * * * * * * * * * * * * * * * * * * * * * //

dimensions      [0 1 -1 0 0 0 0];

internalField   nonuniform List<vector> 
8000
(
(0.0948036 0.00268465 0)
(0.0952143 0.00747906 0)
(0.0934956 0.0168934 0)
(0.0931221 0.0184805 0)
(0.0866671 0.00634699 0)
(0.0852092 0.0164878 0)
(0.0799326 0.0316279 0)
(0.0668869 0.0453399 0)
(0.0794821 0.00793571 0)
(0.0770864 0.0186968 0)
(0.0696175 0.0327516 0)
(0.0552648 0.0460561 0)
(0.0659043 0.00670456 0)
(0.0633513 0.0158572 0)
(0.0560386 0.0265242 0)
(0.0455578 0.0356015 0)
(0.0538703 0.0049202 0)
(0.0524602 0.0123064 0)
(0.0475324 0.0204435 0)
(0.0407419 0.0263714 0)
(0.0471685 0.00366498 0)
(0.0461331 0.0095104 0)
(0.0424238 0.0155118 0)
(0.0374265 0.0196496 0)
(0.0417102 0.00269979 0)
(0.0409684 0.00723176 0)
(0.0382567 0.0117137 0)
(0.0346016 0.0149155 0)
(0.0373787 0.00203137 0)
(0.0368883 0.0055745 0)
(0.0349147 0.00901225 0)
(0.0322465 0.0115697 0)
(0.0340437 0.00156038 0)
(0.0337429 0.00435823 0)
(0.0322891 0.00704176 0)
(0.030307 0.00911326 0)
(0.0314308 0.0012158 0)
(0.0312706 0.00344335 0)
(0.0301856 0.00556739 0)
(0.0286894 0.00726323 0)
(0.0293565 0.000959398 0)
(0.0292994 0.00274792 0)
(0.0284777 0.00444963 0)
(0.027332 0.00584783 0)
(0.0276946 0.000765814 0)
(0.0277128 0.00221359 0)
(0.0270817 0.00359079 0)
(0.0261923 0.00474931 0)
(0.0263516 0.000617472 0)
(0.0264247 0.00179813 0)
(0.0259335 0.00292199 0)
(0.0252346 0.00388565 0)
(0.0252578 0.000502194 0)
(0.0253712 0.00147134 0)
(0.0249842 0.00239485 0)
(0.0244288 0.00319906 0)
(0.0243608 0.000411462 0)
(0.024504 0.00121153 0)
(0.0241957 0.00197482 0)
(0.02375 0.00264791 0)
(0.0236208 0.000339248 0)
(0.0237863 0.00100297 0)
(0.0235383 0.00163691 0)
(0.0231776 0.0022017 0)
(0.0230072 0.000281204 0)
(0.0231895 0.000834119 0)
(0.0229884 0.00136276 0)
(0.0226942 0.00183774 0)
(0.0224962 0.000234133 0)
(0.0226914 0.000696398 0)
(0.0225272 0.00113873 0)
(0.0222856 0.00153895 0)
(0.0220692 0.000195649 0)
(0.0222743 0.000583314 0)
(0.0221393 0.000954509 0)
(0.0219399 0.0012923 0)
(0.0217112 0.000164018 0)
(0.021924 0.000489941 0)
(0.0218125 0.00080219 0)
(0.021647 0.00108768 0)
(0.0214102 0.000137881 0)
(0.0216292 0.000412451 0)
(0.0215366 0.000675642 0)
(0.0213988 0.000917227 0)
(0.0211567 0.000116126 0)
(0.0213806 0.000347849 0)
(0.0213035 0.000570052 0)
(0.0211883 0.000774696 0)
(0.0209428 9.7983e-05 0)
(0.0211706 0.00029385 0)
(0.0211062 0.000481698 0)
(0.0210095 0.000655177 0)
(0.020762 8.28162e-05 0)
(0.020993 0.000248554 0)
(0.020939 0.000407539 0)
(0.0208578 0.000554709 0)
(0.020609 7.00787e-05 0)
(0.0208427 0.000210455 0)
(0.0207973 0.000345126 0)
(0.0207289 0.000470037 0)
(0.0204795 5.93473e-05 0)
(0.0207153 0.00017833 0)
(0.0206772 0.000292494 0)
(0.0206194 0.000398559 0)
(0.0203697 5.02979e-05 0)
(0.0206073 0.000151206 0)
(0.0205752 0.000248035 0)
(0.0205263 0.000338094 0)
(0.0202766 4.26471e-05 0)
(0.0205157 0.00012826 0)
(0.0204886 0.000210432 0)
(0.0204473 0.00028693 0)
(0.0201976 3.61839e-05 0)
(0.0204379 0.000108841 0)
(0.0204151 0.000178577 0)
(0.0203801 0.00024353 0)
(0.0201306 3.07035e-05 0)
(0.0203719 9.23677e-05 0)
(0.0203527 0.000151583 0)
(0.020323 0.000206747 0)
(0.0200737 2.60759e-05 0)
(0.0203159 7.84045e-05 0)
(0.0202997 0.00012866 0)
(0.0202745 0.00017552 0)
(0.0200253 2.21491e-05 0)
(0.0202683 6.65517e-05 0)
(0.0202547 0.000109188 0)
(0.0202333 0.000148964 0)
(0.0199844 1.87842e-05 0)
(0.020228 5.64743e-05 0)
(0.0202165 9.26954e-05 0)
(0.0201983 0.000126425 0)
(0.0199496 1.59438e-05 0)
(0.0201937 4.78858e-05 0)
(0.0201841 7.85954e-05 0)
(0.0201687 0.000107249 0)
(0.0199201 1.35222e-05 0)
(0.0201647 4.06437e-05 0)
(0.0201566 6.67047e-05 0)
(0.0201435 9.09465e-05 0)
(0.0198951 1.14627e-05 0)
(0.0201401 3.44123e-05 0)
(0.0201333 5.65169e-05 0)
(0.0201222 7.70816e-05 0)
(0.0198738 9.75694e-06 0)
(0.0201192 2.91932e-05 0)
(0.0201136 4.78991e-05 0)
(0.0201041 6.53094e-05 0)
(0.0198559 8.25438e-06 0)
(0.0201015 2.47068e-05 0)
(0.0200969 4.05529e-05 0)
(0.0200888 5.5289e-05 0)
(0.0198406 6.99017e-06 0)
(0.0200866 2.08852e-05 0)
(0.0200828 3.42965e-05 0)
(0.0200759 4.67576e-05 0)
(0.0198278 5.91701e-06 0)
(0.0200739 1.76663e-05 0)
(0.0200708 2.90108e-05 0)
(0.020065 3.94972e-05 0)
(0.0198169 5.00307e-06 0)
(0.0200632 1.49036e-05 0)
(0.0200607 2.44966e-05 0)
(0.0200558 3.33493e-05 0)
(0.0198076 4.25147e-06 0)
(0.0200542 1.25659e-05 0)
(0.0200522 2.0648e-05 0)
(0.020048 2.8153e-05 0)
(0.0197999 3.58869e-06 0)
(0.0200466 1.05951e-05 0)
(0.0200451 1.73873e-05 0)
(0.0200415 2.36977e-05 0)
(0.0197934 2.99511e-06 0)
(0.0200402 8.90903e-06 0)
(0.020039 1.46278e-05 0)
(0.020036 1.98831e-05 0)
(0.0197879 2.52229e-06 0)
(0.0200349 7.47442e-06 0)
(0.0200339 1.22971e-05 0)
(0.0200314 1.66831e-05 0)
(0.0197832 2.14738e-06 0)
(0.0200304 6.25748e-06 0)
(0.0200297 1.03083e-05 0)
(0.0200276 1.39871e-05 0)
(0.0197794 1.81599e-06 0)
(0.0200266 5.23036e-06 0)
(0.0200262 8.608e-06 0)
(0.0200243 1.1683e-05 0)
(0.0197761 1.51944e-06 0)
(0.0200234 4.36654e-06 0)
(0.0200232 7.1773e-06 0)
(0.0200217 9.7292e-06 0)
(0.0197734 1.26588e-06 0)
(0.0200208 3.62981e-06 0)
(0.0200208 5.97699e-06 0)
(0.0200195 8.08388e-06 0)
(0.0197712 1.05368e-06 0)
(0.0200186 2.99873e-06 0)
(0.0200187 4.95603e-06 0)
(0.0200176 6.68588e-06 0)
(0.0197693 8.79855e-07 0)
(0.0200169 2.46996e-06 0)
(0.0200171 4.087e-06 0)
(0.0200161 5.49847e-06 0)
(0.0197678 7.41344e-07 0)
(0.0200154 2.03087e-06 0)
(0.0200157 3.35305e-06 0)
(0.0200149 4.50185e-06 0)
(0.0197665 6.21821e-07 0)
(0.0200142 1.65608e-06 0)
(0.0200146 2.73165e-06 0)
(0.0200139 3.66529e-06 0)
(0.0197655 5.15386e-07 0)
(0.0200132 1.33704e-06 0)
(0.0200137 2.20662e-06 0)
(0.0200131 2.9559e-06 0)
(0.0197646 4.22778e-07 0)
(0.0200124 1.07061e-06 0)
(0.0200129 1.76678e-06 0)
(0.0200125 2.35408e-06 0)
(0.0197639 3.47129e-07 0)
(0.0200118 8.48492e-07 0)
(0.0200124 1.39668e-06 0)
(0.020012 1.84855e-06 0)
(0.0197634 2.85369e-07 0)
(0.0200113 6.59582e-07 0)
(0.0200119 1.08433e-06 0)
(0.0200116 1.42977e-06 0)
(0.019763 2.3466e-07 0)
(0.0200109 4.97879e-07 0)
(0.0200116 8.21036e-07 0)
(0.0200113 1.07876e-06 0)
(0.0197626 1.91562e-07 0)
(0.0200107 3.63001e-07 0)
(0.0200113 6.01697e-07 0)
(0.0200111 7.80941e-07 0)
(0.0197624 1.55666e-07 0)
(0.0200105 2.53226e-07 0)
(0.0200112 4.17988e-07 0)
(0.020011 5.28944e-07 0)
(0.0197622 1.25784e-07 0)
(0.0200103 1.61619e-07 0)
(0.0200111 2.63077e-07 0)
(0.0200109 3.19171e-07 0)
(0.0197621 9.85141e-08 0)
(0.0200103 8.10378e-08 0)
(0.020011 1.35377e-07 0)
(0.0200109 1.44618e-07 0)
(0.019762 7.22924e-08 0)
(0.0200102 1.05197e-08 0)
(0.020011 3.26642e-08 0)
(0.0200109 -4.8036e-09 0)
(0.019762 4.99177e-08 0)
(0.0200103 -4.71864e-08 0)
(0.020011 -5.17016e-08 0)
(0.020011 -1.32995e-07 0)
(0.019762 3.46537e-08 0)
(0.0200103 -9.40856e-08 0)
(0.0200111 -1.25519e-07 0)
(0.020011 -2.3839e-07 0)
(0.019762 2.44474e-08 0)
(0.0200104 -1.34522e-07 0)
(0.0200112 -1.89837e-07 0)
(0.0200111 -3.23828e-07 0)
(0.0197621 1.25138e-08 0)
(0.0200105 -1.70225e-07 0)
(0.0200113 -2.43496e-07 0)
(0.0200113 -3.96763e-07 0)
(0.0197621 5.60234e-10 0)
(0.0200106 -1.99048e-07 0)
(0.0200114 -2.89357e-07 0)
(0.0200114 -4.6306e-07 0)
(0.0197622 -9.29396e-09 0)
(0.0200108 -2.21781e-07 0)
(0.0200116 -3.32574e-07 0)
(0.0200115 -5.2133e-07 0)
(0.0197623 -1.68669e-08 0)
(0.0200109 -2.43443e-07 0)
(0.0200117 -3.74407e-07 0)
(0.0200117 -5.6989e-07 0)
(0.0197625 -2.56937e-08 0)
(0.0200111 -2.66498e-07 0)
(0.0200119 -4.11289e-07 0)
(0.0200119 -6.12647e-07 0)
(0.0197626 -3.50663e-08 0)
(0.0200113 -2.87425e-07 0)
(0.0200121 -4.42678e-07 0)
(0.0200121 -6.55836e-07 0)
(0.0197628 -4.0443e-08 0)
(0.0200115 -3.02845e-07 0)
(0.0200123 -4.73263e-07 0)
(0.0200123 -7.01046e-07 0)
(0.0197629 -4.16214e-08 0)
(0.0200117 -3.1662e-07 0)
(0.0200125 -5.06889e-07 0)
(0.0200125 -7.43966e-07 0)
(0.0197631 -4.43138e-08 0)
(0.0200119 -3.3449e-07 0)
(0.0200127 -5.40682e-07 0)
(0.0200127 -7.82241e-07 0)
(0.0197633 -5.26776e-08 0)
(0.0200121 -3.5562e-07 0)
(0.020013 -5.69861e-07 0)
(0.0200129 -8.19912e-07 0)
(0.0197635 -6.33941e-08 0)
(0.0200124 -3.74752e-07 0)
(0.0200132 -5.95342e-07 0)
(0.0200132 -8.61654e-07 0)
(0.0197637 -7.12688e-08 0)
(0.0200127 -3.90131e-07 0)
(0.0200135 -6.24097e-07 0)
(0.0200134 -9.09e-07 0)
(0.0197639 -7.63542e-08 0)
(0.0200129 -4.06884e-07 0)
(0.0200137 -6.6019e-07 0)
(0.0200137 -9.58957e-07 0)
(0.0197642 -8.34851e-08 0)
(0.0200132 -4.29874e-07 0)
(0.020014 -7.0108e-07 0)
(0.020014 -1.00984e-06 0)
(0.0197644 -9.45615e-08 0)
(0.0200135 -4.56688e-07 0)
(0.0200143 -7.41824e-07 0)
(0.0200143 -1.06375e-06 0)
(0.0197647 -1.05708e-07 0)
(0.0200138 -4.82602e-07 0)
(0.0200146 -7.83469e-07 0)
(0.0200146 -1.12428e-06 0)
(0.019765 -1.14016e-07 0)
(0.0200142 -5.07222e-07 0)
(0.020015 -8.30886e-07 0)
(0.0200149 -1.19179e-06 0)
(0.0197653 -1.2128e-07 0)
(0.0200145 -5.35191e-07 0)
(0.0200153 -8.86031e-07 0)
(0.0200153 -1.26444e-06 0)
(0.0197656 -1.31861e-07 0)
(0.0200149 -5.6994e-07 0)
(0.0200157 -9.45922e-07 0)
(0.0200156 -1.34139e-06 0)
(0.019766 -1.4699e-07 0)
(0.0200153 -6.09187e-07 0)
(0.0200161 -1.00737e-06 0)
(0.020016 -1.42521e-06 0)
(0.0197663 -1.63524e-07 0)
(0.0200157 -6.49521e-07 0)
(0.0200165 -1.07204e-06 0)
(0.0200164 -1.51864e-06 0)
(0.0197668 -1.79024e-07 0)
(0.0200162 -6.90922e-07 0)
(0.020017 -1.14368e-06 0)
(0.0200169 -1.62183e-06 0)
(0.0197672 -1.94752e-07 0)
(0.0200167 -7.37304e-07 0)
(0.0200174 -1.22484e-06 0)
(0.0200173 -1.73403e-06 0)
(0.0197677 -2.13475e-07 0)
(0.0200172 -7.90631e-07 0)
(0.020018 -1.31303e-06 0)
(0.0200179 -1.85392e-06 0)
(0.0197682 -2.34775e-07 0)
(0.0200178 -8.48402e-07 0)
(0.0200185 -1.40622e-06 0)
(0.0200184 -1.98391e-06 0)
(0.0197687 -2.56284e-07 0)
(0.0200184 -9.08481e-07 0)
(0.0200191 -1.50681e-06 0)
(0.020019 -2.12741e-06 0)
(0.0197693 -2.76675e-07 0)
(0.020019 -9.72107e-07 0)
(0.0200197 -1.61919e-06 0)
(0.0200196 -2.2858e-06 0)
(0.01977 -2.98965e-07 0)
(0.0200197 -1.04419e-06 0)
(0.0200204 -1.74492e-06 0)
(0.0200203 -2.45777e-06 0)
(0.0197707 -3.2659e-07 0)
(0.0200204 -1.1271e-06 0)
(0.0200211 -1.88148e-06 0)
(0.020021 -2.642e-06 0)
(0.0197714 -3.59857e-07 0)
(0.0200212 -1.21802e-06 0)
(0.0200219 -2.02502e-06 0)
(0.0200217 -2.83995e-06 0)
(0.0197722 -3.95075e-07 0)
(0.0200221 -1.31324e-06 0)
(0.0200228 -2.17737e-06 0)
(0.0200226 -3.05556e-06 0)
(0.0197731 -4.29252e-07 0)
(0.020023 -1.41204e-06 0)
(0.0200237 -2.3433e-06 0)
(0.0200235 -3.29244e-06 0)
(0.019774 -4.63226e-07 0)
(0.020024 -1.51892e-06 0)
(0.0200247 -2.52815e-06 0)
(0.0200244 -3.55136e-06 0)
(0.019775 -5.01788e-07 0)
(0.0200251 -1.63878e-06 0)
(0.0200257 -2.73093e-06 0)
(0.0200255 -3.83095e-06 0)
(0.0197761 -5.47035e-07 0)
(0.0200262 -1.77215e-06 0)
(0.0200268 -2.94907e-06 0)
(0.0200266 -4.13111e-06 0)
(0.0197773 -5.97451e-07 0)
(0.0200274 -1.91565e-06 0)
(0.0200281 -3.18147e-06 0)
(0.0200278 -4.45592e-06 0)
(0.0197786 -6.49438e-07 0)
(0.0200288 -2.06704e-06 0)
(0.0200294 -3.43243e-06 0)
(0.0200291 -4.8106e-06 0)
(0.01978 -7.01551e-07 0)
(0.0200302 -2.22868e-06 0)
(0.0200308 -3.70836e-06 0)
(0.0200305 -5.19893e-06 0)
(0.0197815 -7.57039e-07 0)
(0.0200318 -2.40614e-06 0)
(0.0200324 -4.01245e-06 0)
(0.020032 -5.62112e-06 0)
(0.0197831 -8.20052e-07 0)
(0.0200335 -2.60315e-06 0)
(0.020034 -4.34316e-06 0)
(0.0200336 -6.07569e-06 0)
(0.0197849 -8.92406e-07 0)
(0.0200353 -2.81925e-06 0)
(0.0200358 -4.69715e-06 0)
(0.0200354 -6.56333e-06 0)
(0.0197868 -9.7128e-07 0)
(0.0200373 -3.05054e-06 0)
(0.0200378 -5.07463e-06 0)
(0.0200373 -7.08881e-06 0)
(0.0197889 -1.05316e-06 0)
(0.0200394 -3.29582e-06 0)
(0.0200399 -5.48153e-06 0)
(0.0200394 -7.65987e-06 0)
(0.0197911 -1.13748e-06 0)
(0.0200417 -3.55853e-06 0)
(0.0200422 -5.92582e-06 0)
(0.0200416 -8.28286e-06 0)
(0.0197936 -1.22861e-06 0)
(0.0200442 -3.84577e-06 0)
(0.0200447 -6.41213e-06 0)
(0.020044 -8.96047e-06 0)
(0.0197962 -1.33134e-06 0)
(0.0200469 -4.16235e-06 0)
(0.0200473 -6.94075e-06 0)
(0.0200466 -9.69304e-06 0)
(0.019799 -1.44746e-06 0)
(0.0200498 -4.5086e-06 0)
(0.0200502 -7.50915e-06 0)
(0.0200495 -1.04815e-05 0)
(0.0198021 -1.57461e-06 0)
(0.0200529 -4.88179e-06 0)
(0.0200533 -8.11938e-06 0)
(0.0200525 -1.13323e-05 0)
(0.0198055 -1.70834e-06 0)
(0.0200564 -5.2798e-06 0)
(0.0200566 -8.77633e-06 0)
(0.0200558 -1.22523e-05 0)
(0.0198091 -1.84754e-06 0)
(0.0200601 -5.7065e-06 0)
(0.0200603 -9.4908e-06 0)
(0.0200594 -1.32525e-05 0)
(0.019813 -1.99492e-06 0)
(0.020064 -6.16821e-06 0)
(0.0200642 -1.027e-05 0)
(0.0200633 -1.43394e-05 0)
(0.0198172 -2.15665e-06 0)
(0.0200684 -6.67346e-06 0)
(0.0200685 -1.11182e-05 0)
(0.0200674 -1.5518e-05 0)
(0.0198218 -2.33671e-06 0)
(0.020073 -7.22566e-06 0)
(0.0200731 -1.20367e-05 0)
(0.0200719 -1.67926e-05 0)
(0.0198268 -2.53594e-06 0)
(0.020078 -7.82553e-06 0)
(0.020078 -1.30254e-05 0)
(0.0200768 -1.81657e-05 0)
(0.0198321 -2.75083e-06 0)
(0.0200835 -8.46952e-06 0)
(0.0200834 -1.40893e-05 0)
(0.0200821 -1.96501e-05 0)
(0.019838 -2.98103e-06 0)
(0.0200894 -9.16451e-06 0)
(0.0200893 -1.52409e-05 0)
(0.0200878 -2.1257e-05 0)
(0.0198443 -3.22719e-06 0)
(0.0200958 -9.91403e-06 0)
(0.0200956 -1.64885e-05 0)
(0.020094 -2.29978e-05 0)
(0.0198511 -3.49154e-06 0)
(0.0201027 -1.07251e-05 0)
(0.0201024 -1.78418e-05 0)
(0.0201007 -2.48846e-05 0)
(0.0198585 -3.78016e-06 0)
(0.0201102 -1.16073e-05 0)
(0.0201098 -1.93098e-05 0)
(0.0201079 -2.69293e-05 0)
(0.0198665 -4.09737e-06 0)
(0.0201182 -1.25663e-05 0)
(0.0201177 -2.08989e-05 0)
(0.0201158 -2.91422e-05 0)
(0.0198751 -4.44137e-06 0)
(0.020127 -1.36036e-05 0)
(0.0201264 -2.26164e-05 0)
(0.0201242 -3.15358e-05 0)
(0.0198845 -4.81072e-06 0)
(0.0201365 -1.47224e-05 0)
(0.0201357 -2.4474e-05 0)
(0.0201334 -3.41268e-05 0)
(0.0198946 -5.20604e-06 0)
(0.0201467 -1.59303e-05 0)
(0.0201459 -2.6487e-05 0)
(0.0201434 -3.69341e-05 0)
(0.0199056 -5.63172e-06 0)
(0.0201578 -1.72384e-05 0)
(0.0201568 -2.86715e-05 0)
(0.0201541 -3.99776e-05 0)
(0.0199175 -6.09452e-06 0)
(0.0201698 -1.86594e-05 0)
(0.0201687 -3.10415e-05 0)
(0.0201657 -4.32764e-05 0)
(0.0199304 -6.60079e-06 0)
(0.0201828 -2.02037e-05 0)
(0.0201815 -3.3609e-05 0)
(0.0201783 -4.68484e-05 0)
(0.0199443 -7.15357e-06 0)
(0.0201968 -2.18787e-05 0)
(0.0201954 -3.6386e-05 0)
(0.0201919 -5.07136e-05 0)
(0.0199594 -7.75352e-06 0)
(0.0202121 -2.36908e-05 0)
(0.0202104 -3.93885e-05 0)
(0.0202067 -5.48966e-05 0)
(0.0199757 -8.39986e-06 0)
(0.0202286 -2.56486e-05 0)
(0.0202267 -4.26391e-05 0)
(0.0202226 -5.94288e-05 0)
(0.0199934 -9.09627e-06 0)
(0.0202464 -2.77679e-05 0)
(0.0202443 -4.61651e-05 0)
(0.0202399 -6.43434e-05 0)
(0.0200126 -9.85e-06 0)
(0.0202657 -3.00667e-05 0)
(0.0202634 -4.9991e-05 0)
(0.0202586 -6.96739e-05 0)
(0.0200333 -1.06691e-05 0)
(0.0202867 -3.25613e-05 0)
(0.020284 -5.41417e-05 0)
(0.0202789 -7.5454e-05 0)
(0.0200558 -1.15592e-05 0)
(0.0203093 -3.52679e-05 0)
(0.0203064 -5.86416e-05 0)
(0.0203008 -8.17196e-05 0)
(0.0200801 -1.25249e-05 0)
(0.0203338 -3.82023e-05 0)
(0.0203306 -6.35193e-05 0)
(0.0203245 -8.8512e-05 0)
(0.0201065 -1.35713e-05 0)
(0.0203604 -4.13834e-05 0)
(0.0203569 -6.88092e-05 0)
(0.0203503 -9.58795e-05 0)
(0.0201351 -1.47052e-05 0)
(0.0203892 -4.48342e-05 0)
(0.0203853 -7.45509e-05 0)
(0.0203781 -0.000103874 0)
(0.0201661 -1.59365e-05 0)
(0.0204204 -4.8581e-05 0)
(0.0204161 -8.07843e-05 0)
(0.0204083 -0.000112552 0)
(0.0201997 -1.72747e-05 0)
(0.0204542 -5.26501e-05 0)
(0.0204494 -8.75502e-05 0)
(0.020441 -0.000121968 0)
(0.020236 -1.87283e-05 0)
(0.0204909 -5.70679e-05 0)
(0.0204856 -9.48939e-05 0)
(0.0204764 -0.000132189 0)
(0.0202755 -2.03078e-05 0)
(0.0205306 -6.18646e-05 0)
(0.0205248 -0.000102868 0)
(0.0205148 -0.000143288 0)
(0.0203183 -2.20246e-05 0)
(0.0205736 -6.70765e-05 0)
(0.0205672 -0.000111532 0)
(0.0205564 -0.000155348 0)
(0.0203646 -2.3892e-05 0)
(0.0206203 -7.27435e-05 0)
(0.0206133 -0.00012095 0)
(0.0206016 -0.000168456 0)
(0.0204149 -2.59244e-05 0)
(0.0206709 -7.89071e-05 0)
(0.0206632 -0.00013119 0)
(0.0206505 -0.000182706 0)
(0.0204695 -2.81342e-05 0)
(0.0207258 -8.56094e-05 0)
(0.0207174 -0.000142326 0)
(0.0207035 -0.000198204 0)
(0.0205287 -3.05347e-05 0)
(0.0207854 -9.28986e-05 0)
(0.0207762 -0.000154445 0)
(0.0207611 -0.000215068 0)
(0.020593 -3.31439e-05 0)
(0.0208501 -0.000100833 0)
(0.02084 -0.000167644 0)
(0.0208235 -0.000233431 0)
(0.0206628 -3.59865e-05 0)
(0.0209203 -0.000109482 0)
(0.0209092 -0.000182031 0)
(0.0208912 -0.000253438 0)
(0.0207387 -3.90904e-05 0)
(0.0209966 -0.000118918 0)
(0.0209843 -0.000197717 0)
(0.0209647 -0.000275242 0)
(0.020821 -4.24843e-05 0)
(0.0210794 -0.000129215 0)
(0.0210659 -0.000214821 0)
(0.0210446 -0.000299016 0)
(0.0209105 -4.61891e-05 0)
(0.0211693 -0.000140453 0)
(0.0211546 -0.000233481 0)
(0.0211313 -0.000324953 0)
(0.0210078 -5.02393e-05 0)
(0.0212671 -0.000152727 0)
(0.0212509 -0.000253857 0)
(0.0212255 -0.000353274 0)
(0.0211137 -5.46612e-05 0)
(0.0213735 -0.000166138 0)
(0.0213557 -0.000276128 0)
(0.0213279 -0.000384226 0)
(0.0212288 -5.94969e-05 0)
(0.0214893 -0.000180815 0)
(0.0214697 -0.0003005 0)
(0.0214392 -0.000418089 0)
(0.0213542 -6.47984e-05 0)
(0.0216152 -0.000196894 0)
(0.0215937 -0.000327193 0)
(0.0215603 -0.000455163 0)
(0.0214908 -7.06114e-05 0)
(0.0217524 -0.000214522 0)
(0.0217288 -0.000356452 0)
(0.0216922 -0.000495791 0)
(0.0216396 -7.69902e-05 0)
(0.021902 -0.000233869 0)
(0.0218759 -0.00038856 0)
(0.0218357 -0.000540359 0)
(0.021802 -8.39982e-05 0)
(0.022065 -0.000255127 0)
(0.0220362 -0.000423836 0)
(0.021992 -0.000589307 0)
(0.0219792 -9.17098e-05 0)
(0.0222429 -0.000278521 0)
(0.0222111 -0.000462647 0)
(0.0221625 -0.000643139 0)
(0.0221727 -0.000100211 0)
(0.0224371 -0.000304304 0)
(0.022402 -0.000505405 0)
(0.0223484 -0.000702417 0)
(0.0223843 -0.000109599 0)
(0.0226494 -0.000332762 0)
(0.0226105 -0.000552575 0)
(0.0225513 -0.00076778 0)
(0.0226157 -0.000119979 0)
(0.0228815 -0.000364215 0)
(0.0228384 -0.00060469 0)
(0.022773 -0.000839966 0)
(0.0228692 -0.000131471 0)
(0.0231357 -0.000399039 0)
(0.0230879 -0.000662377 0)
(0.0230153 -0.000919835 0)
(0.0231471 -0.00014422 0)
(0.0234143 -0.000437676 0)
(0.023361 -0.000726367 0)
(0.0232805 -0.00100838 0)
(0.0234521 -0.000158401 0)
(0.0237199 -0.000480646 0)
(0.0236605 -0.000797494 0)
(0.023571 -0.00110672 0)
(0.0237873 -0.000174219 0)
(0.0240557 -0.00052854 0)
(0.0239893 -0.000876717 0)
(0.0238895 -0.00121617 0)
(0.0241562 -0.000191895 0)
(0.024425 -0.000582042 0)
(0.0243507 -0.000965168 0)
(0.0242391 -0.00133829 0)
(0.0245628 -0.000211696 0)
(0.0248319 -0.000641973 0)
(0.0247484 -0.0010642 0)
(0.0246233 -0.0014749 0)
(0.0250117 -0.000233952 0)
(0.0252809 -0.000709323 0)
(0.0251868 -0.00117542 0)
(0.0250461 -0.00162814 0)
(0.0255083 -0.000259059 0)
(0.0257772 -0.000785257 0)
(0.0256708 -0.0013007 0)
(0.0255121 -0.00180055 0)
(0.0260587 -0.000287478 0)
(0.0263269 -0.000871153 0)
(0.0262062 -0.00144229 0)
(0.0260266 -0.00199518 0)
(0.0266701 -0.00031976 0)
(0.026937 -0.000968688 0)
(0.0267996 -0.00160293 0)
(0.0265954 -0.00221568 0)
(0.0273509 -0.000356597 0)
(0.0276159 -0.00107994 0)
(0.0274586 -0.00178595 0)
(0.0272256 -0.00246648 0)
(0.0281112 -0.000398844 0)
(0.0283731 -0.00120742 0)
(0.0281923 -0.0019954 0)
(0.0279252 -0.00275295 0)
(0.0289628 -0.000447539 0)
(0.0292202 -0.00135424 0)
(0.0290114 -0.00223625 0)
(0.0287035 -0.00308171 0)
(0.0299199 -0.00050398 0)
(0.030171 -0.00152427 0)
(0.0299283 -0.00251474 0)
(0.0295714 -0.00346093 0)
(0.0309995 -0.000569828 0)
(0.0312419 -0.00172243 0)
(0.0309579 -0.00283868 0)
(0.0305418 -0.0039008 0)
(0.0322227 -0.000647199 0)
(0.0324528 -0.00195497 0)
(0.0321183 -0.00321796 0)
(0.0316298 -0.00441416 0)
(0.0336149 -0.000738806 0)
(0.0338283 -0.0022299 0)
(0.033431 -0.00366526 0)
(0.0328532 -0.00501736 0)
(0.0352082 -0.000848208 0)
(0.0353983 -0.00255771 0)
(0.0349224 -0.00419701 0)
(0.0342334 -0.00573135 0)
(0.0370425 -0.000980162 0)
(0.0372006 -0.00295228 0)
(0.0366248 -0.00483479 0)
(0.0357955 -0.00658334 0)
(0.0391688 -0.00114104 0)
(0.0392823 -0.0034322 0)
(0.038578 -0.00560728 0)
(0.0375699 -0.0076091 0)
(0.0416529 -0.00133955 0)
(0.0417039 -0.00402276 0)
(0.0408319 -0.0065532 0)
(0.0395926 -0.00885621 0)
(0.044581 -0.00158787 0)
(0.0445437 -0.00475899 0)
(0.0434491 -0.00772554 0)
(0.0419067 -0.0103887 0)
(0.048068 -0.00190325 0)
(0.0479042 -0.0056903 0)
(0.0465093 -0.0091981 0)
(0.0445634 -0.0122942 0)
(0.0522695 -0.00231062 0)
(0.0519223 -0.00688751 0)
(0.0501145 -0.0110754 0)
(0.0476225 -0.0146941 0)
(0.0574009 -0.00284669 0)
(0.0567846 -0.00845422 0)
(0.0543972 -0.0135083 0)
(0.0511524 -0.0177592 0)
(0.063762 -0.00356605 0)
(0.0627458 -0.0105446 0)
(0.0595293 -0.0167191 0)
(0.0552279 -0.0217343 0)
(0.0718005 -0.00455141 0)
(0.070193 -0.0133907 0)
(0.0657543 -0.0210382 0)
(0.0599247 -0.0269742 0)
(0.0820307 -0.00591618 0)
(0.079541 -0.0173492 0)
(0.0733427 -0.0269982 0)
(0.0653102 -0.0340214 0)
(0.0958863 -0.00785376 0)
(0.0921743 -0.0229128 0)
(0.0829522 -0.035283 0)
(0.0713176 -0.0436464 0)
(0.111841 -0.0104242 0)
(0.106631 -0.0309592 0)
(0.0948819 -0.0477304 0)
(0.0786345 -0.0572935 0)
(0.142489 -0.0145567 0)
(0.134377 -0.0427863 0)
(0.110955 -0.0646914 0)
(0.0829352 -0.0773755 0)
(0.15689 -0.0178518 0)
(0.148368 -0.0547125 0)
(0.132393 -0.0879975 0)
(0.104883 -0.104447 0)
(0.245256 -0.0312516 0)
(0.228241 -0.0975183 0)
(0.175817 -0.15211 0)
(0.0962491 -0.169952 0)
(0.0356384 0.0503527 0)
(0.020479 0.0576841 0)
(0.0252983 0.0496638 0)
(0.0302335 0.0376982 0)
(0.0316201 0.0284465 0)
(0.0312621 0.0216385 0)
(0.0302963 0.0167807 0)
(0.0291391 0.013235 0)
(0.0279899 0.0105684 0)
(0.0269235 0.00852167 0)
(0.0259645 0.00692815 0)
(0.025119 0.00567221 0)
(0.0243825 0.00467177 0)
(0.0237456 0.00386755 0)
(0.0231976 0.00321585 0)
(0.0227275 0.00268404 0)
(0.0223251 0.00224738 0)
(0.0219812 0.00188689 0)
(0.0216876 0.00158788 0)
(0.021437 0.00133884 0)
(0.0212233 0.0011307 0)
(0.0210412 0.000956192 0)
(0.020886 0.000809494 0)
(0.0207537 0.000685927 0)
(0.0206411 0.000581613 0)
(0.0205452 0.000493462 0)
(0.0204635 0.000418782 0)
(0.020394 0.000355541 0)
(0.0203349 0.000301858 0)
(0.0202847 0.000256302 0)
(0.0202419 0.000217606 0)
(0.0202056 0.000184732 0)
(0.0201749 0.000156752 0)
(0.0201487 0.000132995 0)
(0.0201265 0.000112768 0)
(0.0201078 9.55895e-05 0)
(0.0200919 8.09459e-05 0)
(0.0200784 6.85053e-05 0)
(0.020067 5.79659e-05 0)
(0.0200575 4.89568e-05 0)
(0.0200494 4.12749e-05 0)
(0.0200426 3.47968e-05 0)
(0.0200369 2.93104e-05 0)
(0.0200321 2.46276e-05 0)
(0.0200281 2.06459e-05 0)
(0.0200248 1.72704e-05 0)
(0.020022 1.44102e-05 0)
(0.0200197 1.19923e-05 0)
(0.0200178 9.94868e-06 0)
(0.0200162 8.21758e-06 0)
(0.0200149 6.75384e-06 0)
(0.0200139 5.52077e-06 0)
(0.0200131 4.48152e-06 0)
(0.0200124 3.60484e-06 0)
(0.0200119 2.86858e-06 0)
(0.0200115 2.25198e-06 0)
(0.0200112 1.7332e-06 0)
(0.020011 1.29056e-06 0)
(0.0200109 9.18122e-07 0)
(0.0200108 6.12737e-07 0)
(0.0200107 3.61299e-07 0)
(0.0200107 1.47755e-07 0)
(0.0200108 -3.52759e-08 0)
(0.0200109 -1.87607e-07 0)
(0.020011 -3.14554e-07 0)
(0.0200111 -4.26672e-07 0)
(0.0200112 -5.28607e-07 0)
(0.0200113 -6.15321e-07 0)
(0.0200115 -6.83377e-07 0)
(0.0200117 -7.40217e-07 0)
(0.0200119 -7.95996e-07 0)
(0.020012 -8.52367e-07 0)
(0.0200122 -9.04338e-07 0)
(0.0200125 -9.50577e-07 0)
(0.0200127 -9.97381e-07 0)
(0.0200129 -1.05026e-06 0)
(0.0200131 -1.10825e-06 0)
(0.0200134 -1.16664e-06 0)
(0.0200137 -1.22535e-06 0)
(0.0200139 -1.28834e-06 0)
(0.0200142 -1.35952e-06 0)
(0.0200145 -1.43793e-06 0)
(0.0200148 -1.5212e-06 0)
(0.0200152 -1.60991e-06 0)
(0.0200155 -1.70821e-06 0)
(0.0200159 -1.81866e-06 0)
(0.0200163 -1.94064e-06 0)
(0.0200168 -2.07146e-06 0)
(0.0200172 -2.21203e-06 0)
(0.0200177 -2.36482e-06 0)
(0.0200182 -2.53334e-06 0)
(0.0200188 -2.71838e-06 0)
(0.0200194 -2.91851e-06 0)
(0.0200201 -3.13364e-06 0)
(0.0200208 -3.3664e-06 0)
(0.0200215 -3.62129e-06 0)
(0.0200223 -3.90109e-06 0)
(0.0200232 -4.20592e-06 0)
(0.0200241 -4.5346e-06 0)
(0.0200251 -4.88837e-06 0)
(0.0200262 -5.27115e-06 0)
(0.0200274 -5.68892e-06 0)
(0.0200287 -6.1451e-06 0)
(0.02003 -6.64103e-06 0)
(0.0200315 -7.17587e-06 0)
(0.0200331 -7.75091e-06 0)
(0.0200348 -8.37128e-06 0)
(0.0200367 -9.04469e-06 0)
(0.0200387 -9.77815e-06 0)
(0.0200409 -1.05757e-05 0)
(0.0200432 -1.14393e-05 0)
(0.0200458 -1.23708e-05 0)
(0.0200485 -1.33749e-05 0)
(0.0200515 -1.44613e-05 0)
(0.0200547 -1.56388e-05 0)
(0.0200582 -1.69178e-05 0)
(0.020062 -1.83043e-05 0)
(0.020066 -1.98056e-05 0)
(0.0200704 -2.14283e-05 0)
(0.0200752 -2.31779e-05 0)
(0.0200803 -2.50728e-05 0)
(0.0200859 -2.71251e-05 0)
(0.0200919 -2.9348e-05 0)
(0.0200985 -3.17566e-05 0)
(0.0201055 -3.43648e-05 0)
(0.0201131 -3.71869e-05 0)
(0.0201214 -4.02405e-05 0)
(0.0201303 -4.35469e-05 0)
(0.02014 -4.71296e-05 0)
(0.0201505 -5.10122e-05 0)
(0.0201618 -5.52182e-05 0)
(0.0201741 -5.97713e-05 0)
(0.0201873 -6.46992e-05 0)
(0.0202017 -7.00353e-05 0)
(0.0202172 -7.58182e-05 0)
(0.0202341 -8.20886e-05 0)
(0.0202523 -8.88878e-05 0)
(0.020272 -9.6258e-05 0)
(0.0202934 -0.000104246 0)
(0.0203165 -0.000112906 0)
(0.0203415 -0.0001223 0)
(0.0203686 -0.000132492 0)
(0.020398 -0.000143552 0)
(0.0204298 -0.000155552 0)
(0.0204643 -0.000168578 0)
(0.0205017 -0.000182723 0)
(0.0205421 -0.000198092 0)
(0.020586 -0.000214793 0)
(0.0206336 -0.000232947 0)
(0.0206851 -0.000252688 0)
(0.020741 -0.000274166 0)
(0.0208017 -0.000297548 0)
(0.0208675 -0.000323014 0)
(0.0209388 -0.000350762 0)
(0.0210163 -0.000381009 0)
(0.0211005 -0.000414006 0)
(0.0211918 -0.000450029 0)
(0.0212911 -0.000489392 0)
(0.021399 -0.000532438 0)
(0.0215162 -0.000579548 0)
(0.0216438 -0.000631152 0)
(0.0217826 -0.000687737 0)
(0.0219337 -0.000749859 0)
(0.0220983 -0.000818143 0)
(0.0222777 -0.000893292 0)
(0.0224733 -0.000976107 0)
(0.0226868 -0.00106752 0)
(0.0229199 -0.00116859 0)
(0.0231746 -0.00128054 0)
(0.0234533 -0.00140476 0)
(0.0237584 -0.00154289 0)
(0.0240926 -0.00169686 0)
(0.0244593 -0.00186888 0)
(0.024862 -0.00206159 0)
(0.0253047 -0.00227807 0)
(0.0257922 -0.00252205 0)
(0.0263295 -0.00279796 0)
(0.0269228 -0.0031111 0)
(0.0275788 -0.00346792 0)
(0.0283053 -0.00387631 0)
(0.0291113 -0.00434593 0)
(0.0300072 -0.00488872 0)
(0.0310047 -0.00551959 0)
(0.0321173 -0.00625734 0)
(0.0333605 -0.00712577 0)
(0.0347518 -0.00815533 0)
(0.0363108 -0.00938546 0)
(0.038059 -0.0108676 0)
(0.040019 -0.0126696 0)
(0.0422132 -0.0148816 0)
(0.0446602 -0.0176252 0)
(0.0473692 -0.0210651 0)
(0.050328 -0.0254274 0)
(0.0534814 -0.0310245 0)
(0.0566978 -0.0382926 0)
(0.059645 -0.0478562 0)
(0.0619298 -0.0604955 0)
(0.0610609 -0.0782278 0)
(0.0606007 -0.100438 0)
(0.0176071 -0.142813 0)
(0.00553355 0.0346546 0)
(0.00274523 0.0457729 0)
(0.0137265 0.0409887 0)
(0.0211418 0.0334282 0)
(0.0245025 0.0268198 0)
(0.0259147 0.0214722 0)
(0.0262607 0.0172705 0)
(0.0260561 0.0139748 0)
(0.0256034 0.0113756 0)
(0.0250538 0.00931132 0)
(0.0244847 0.00766118 0)
(0.023937 0.00633316 0)
(0.0234305 0.00525736 0)
(0.0229732 0.00438056 0)
(0.0225667 0.00366189 0)
(0.0222092 0.00306983 0)
(0.0218971 0.00257982 0)
(0.0216262 0.00217259 0)
(0.0213919 0.00183293 0)
(0.0211899 0.00154872 0)
(0.0210162 0.00131024 0)
(0.0208671 0.00110965 0)
(0.0207393 0.000940546 0)
(0.0206299 0.00079777 0)
(0.0205364 0.000676971 0)
(0.0204566 0.00057474 0)
(0.0203884 0.000488037 0)
(0.0203304 0.000414499 0)
(0.0202809 0.000352043 0)
(0.0202388 0.000298991 0)
(0.0202029 0.000253877 0)
(0.0201725 0.000215523 0)
(0.0201467 0.000182905 0)
(0.0201247 0.00015517 0)
(0.0201062 0.000131533 0)
(0.0200904 0.000111489 0)
(0.0200771 9.44106e-05 0)
(0.0200659 7.98564e-05 0)
(0.0200564 6.75132e-05 0)
(0.0200484 5.70181e-05 0)
(0.0200417 4.80905e-05 0)
(0.0200361 4.05096e-05 0)
(0.0200314 3.40665e-05 0)
(0.0200274 2.85972e-05 0)
(0.0200241 2.39659e-05 0)
(0.0200214 2.00373e-05 0)
(0.0200191 1.67006e-05 0)
(0.0200173 1.38737e-05 0)
(0.0200158 1.14859e-05 0)
(0.0200145 9.47191e-06 0)
(0.0200135 7.7716e-06 0)
(0.0200127 6.33268e-06 0)
(0.0200121 5.11637e-06 0)
(0.0200116 4.09454e-06 0)
(0.0200112 3.24028e-06 0)
(0.0200109 2.52271e-06 0)
(0.0200107 1.91941e-06 0)
(0.0200106 1.41128e-06 0)
(0.0200105 9.8636e-07 0)
(0.0200105 6.28829e-07 0)
(0.0200105 3.23945e-07 0)
(0.0200106 6.78292e-08 0)
(0.0200106 -1.38816e-07 0)
(0.0200107 -3.0438e-07 0)
(0.0200109 -4.45085e-07 0)
(0.020011 -5.70114e-07 0)
(0.0200111 -6.78412e-07 0)
(0.0200113 -7.67877e-07 0)
(0.0200115 -8.4589e-07 0)
(0.0200116 -9.22018e-07 0)
(0.0200118 -9.97233e-07 0)
(0.020012 -1.06429e-06 0)
(0.0200122 -1.12155e-06 0)
(0.0200124 -1.17645e-06 0)
(0.0200126 -1.23699e-06 0)
(0.0200129 -1.30237e-06 0)
(0.0200131 -1.36764e-06 0)
(0.0200133 -1.43169e-06 0)
(0.0200136 -1.50069e-06 0)
(0.0200139 -1.57931e-06 0)
(0.0200141 -1.66635e-06 0)
(0.0200144 -1.75816e-06 0)
(0.0200148 -1.8554e-06 0)
(0.0200151 -1.96313e-06 0)
(0.0200154 -2.08545e-06 0)
(0.0200158 -2.22119e-06 0)
(0.0200162 -2.3673e-06 0)
(0.0200166 -2.5227e-06 0)
(0.0200171 -2.6921e-06 0)
(0.0200175 -2.87955e-06 0)
(0.020018 -3.08507e-06 0)
(0.0200186 -3.30713e-06 0)
(0.0200192 -3.54521e-06 0)
(0.0200198 -3.80329e-06 0)
(0.0200205 -4.0871e-06 0)
(0.0200212 -4.4e-06 0)
(0.020022 -4.74125e-06 0)
(0.0200228 -5.10879e-06 0)
(0.0200237 -5.5035e-06 0)
(0.0200247 -5.9304e-06 0)
(0.0200258 -6.39622e-06 0)
(0.0200269 -6.90521e-06 0)
(0.0200281 -7.45827e-06 0)
(0.0200295 -8.05521e-06 0)
(0.0200309 -8.69754e-06 0)
(0.0200324 -9.39071e-06 0)
(0.0200341 -1.01433e-05 0)
(0.0200359 -1.09626e-05 0)
(0.0200379 -1.18534e-05 0)
(0.02004 -1.28184e-05 0)
(0.0200422 -1.38603e-05 0)
(0.0200447 -1.49846e-05 0)
(0.0200474 -1.61993e-05 0)
(0.0200502 -1.75164e-05 0)
(0.0200534 -1.8944e-05 0)
(0.0200567 -2.04927e-05 0)
(0.0200604 -2.21687e-05 0)
(0.0200643 -2.39815e-05 0)
(0.0200686 -2.59422e-05 0)
(0.0200732 -2.80584e-05 0)
(0.0200782 -3.03527e-05 0)