/*--------------------------------*- C++ -*----------------------------------*\
  =========                 |
  \\      /  F ield         | OpenFOAM: The Open Source CFD Toolbox
   \\    /   O peration     | Website:  https://openfoam.org
    \\  /    A nd           | Version:  dev
     \\/     M anipulation  |
\*---------------------------------------------------------------------------*/
FoamFile
{
    version     2.0;
    format      ascii;
    class       volScalarField;
    location    "50";
    object      epsilon;
}
// * * * * * * * * * * * * * * * * * * * * * * * * * * * * * * * * * * * * * //

dimensions      [0 2 -3 0 0 0 0];

internalField   nonuniform List<scalar> 
4000
(
0.000131324
0.000179497
0.000224426
0.000259684
0.000286839
0.00030754
0.000323434
0.000335958
0.000345834
0.000352182
0.000351938
0.00034526
0.000334852
0.00032138
0.000304412
0.00028265
0.000254608
0.000218785
0.000173772
0.000125854
0.000138058
0.000206486
0.000272387
0.000330035
0.000378823
0.000418953
0.000451826
0.000478721
0.000499707
0.000514528
0.000513482
0.000497167
0.0004749
0.000446802
0.000412799
0.000371805
0.000322591
0.000265029
0.00019976
0.000132417
0.000139552
0.000216256
0.000290602
0.000358082
0.000416313
0.000464295
0.000502859
0.000533062
0.000554974
0.000568955
0.000567084
0.000550865
0.00052726
0.000495805
0.00045635
0.000407946
0.000349822
0.000282897
0.00020943
0.000133995
0.000137273
0.00021321
0.000287007
0.000355183
0.000414432
0.00046296
0.000500742
0.000528473
0.000546847
0.00055735
0.000555037
0.000541914
0.000521618
0.000492742
0.000454427
0.000405983
0.000347291
0.000279899
0.000206875
0.00013202
0.000132043
0.000206535
0.000277135
0.000338861
0.000389571
0.00042871
0.000458534
0.000479771
0.000491955
0.00049776
0.000494702
0.000486464
0.000472224
0.000450099
0.000420774
0.00038195
0.000331845
0.000270955
0.000201176
0.000127295
0.000126701
0.000194724
0.000262007
0.000317427
0.000360617
0.000391427
0.0004106
0.000418961
0.000417122
0.000407614
0.00040269
0.00040995
0.000410596
0.000402063
0.000383624
0.000353649
0.000311349
0.000257032
0.000190695
0.00012243
0.00012064
0.000180276
0.000239247
0.000287327
0.000323834
0.000346054
0.000354325
0.000348876
0.000331171
0.000306568
0.000298741
0.000319552
0.000337709
0.000344436
0.000337906
0.000317567
0.00028244
0.000235359
0.000177079
0.0001169
0.000112464
0.00016196
0.000210503
0.000249666
0.000277827
0.000292689
0.000292298
0.000273549
0.000239754
0.000202136
0.000187418
0.000223743
0.000258659
0.000280425
0.000284527
0.000272092
0.000245666
0.000207558
0.000159499
0.000109371
0.000100211
0.000137415
0.000173443
0.000202485
0.000222801
0.000232496
0.000228975
0.000208237
0.000166493
0.000112142
0.000101105
0.000143005
0.000191855
0.000217665
0.000225142
0.000217912
0.00019929
0.000171264
0.000135627
9.79666e-05
8.31643e-05
0.000104779
0.000125441
0.000143146
0.000156743
0.000164851
0.000165555
0.00015622
0.000134193
0.000104377
9.08338e-05
0.000119782
0.000145576
0.000158291
0.000160033
0.000153512
0.000141017
0.000124032
0.000103753
8.21524e-05
0.000179497
0.000248546
0.00031097
0.000360468
0.000399292
0.000429978
0.000455177
0.000477683
0.00049851
0.000514773
0.000516578
0.000500417
0.000478874
0.00045452
0.000427405
0.000394761
0.000354171
0.000303317
0.00024024
0.000171394
0.000206486
0.000232653
0.000279676
0.000307724
0.000323766
0.000332817
0.000339019
0.000345211
0.000351794
0.00035774
0.000357742
0.000351235
0.000343789
0.000336465
0.000329029
0.00031855
0.00030096
0.000271478
0.000223911
0.000197017
0.000216256
0.000220368
0.000260727
0.000284984
0.000299068
0.000307992
0.000316025
0.000325511
0.000336239
0.000345228
0.00034588
0.000336742
0.000324766
0.000313683
0.000304124
0.000293763
0.000278344
0.000252928
0.000212221
0.000206581
0.00021321
0.000204864
0.000242386
0.000268527
0.000286193
0.000299375
0.000312129
0.000326663
0.000342324
0.000354535
0.000356003
0.000344603
0.000327577
0.000310988
0.00029634
0.000281607
0.000262744
0.000235702
0.000197931
0.000204215
0.000206535
0.000190202
0.000226136
0.000255967
0.000277655
0.000294394
0.000310586
0.000328304
0.000346102
0.000358109
0.000359272
0.000349326
0.000330241
0.000310243
0.000292193
0.00027389
0.000251187
0.000220781
0.000184655
0.000198513
0.000194724
0.000179217
0.000212851
0.000244709
0.000270062
0.00028967
0.000304966
0.000318006
0.000326894
0.000322766
0.000320517
0.000327055
0.000317925
0.000303541
0.000287014
0.000266507
0.000240693
0.000208673
0.00017473
0.000187786
0.000180276
0.000170612
0.000201378
0.000232426
0.000258019
0.000276156
0.000286108
0.000286513
0.000274658
0.000246921
0.000239353
0.000263334
0.000280342
0.000281348
0.000271849
0.000254069
0.000228788
0.000197905
0.000166771
0.000174435
0.00016196
0.000163004
0.00019056
0.0002177
0.000239497
0.000253039
0.000255469
0.000242258
0.000207809
0.00016777
0.0001567
0.000191192
0.000229237
0.000246674
0.000246762
0.000234768
0.000213947
0.000187241
0.000159425
0.000157264
0.000137415
0.000149965
0.000174402
0.000195906
0.00021192
0.000220382
0.000218198
0.000200481
0.000162452
0.000127403
0.000115692
0.000144962
0.000184317
0.000207605
0.000213262
0.000206864
0.00019207
0.000171114
0.00014662
0.000133956
0.000104779
0.000157632
0.000196137
0.000221701
0.000236248
0.000240065
0.000231612
0.000207523
0.000167873
0.000130461
0.000114634
0.000150634
0.000189719
0.000219542
0.000231981
0.000230718
0.000217895
0.000193478
0.000155618
0.000102797
0.000224426
0.00031097
0.000384485
0.000441576
0.000486244
0.000522484
0.000553597
0.000585405
0.000619633
0.000648129
0.000652981
0.000625989
0.00059107
0.000555911
0.000522114
0.00048302
0.000435733
0.000376488
0.000301681
0.000215139
0.000272387
0.000279676
0.000319625
0.000334938
0.000336918
0.000333837
0.000330986
0.00033276
0.000338951
0.000345811
0.000346369
0.000339993
0.000333449
0.000330566
0.000332309
0.000333779
0.000329649
0.00031187
0.000270232
0.000260444
0.000290602
0.000260727
0.000287541
0.000296996
0.000296659
0.000293139
0.000291222
0.000293275
0.000298685
0.000303167
0.000303411
0.000299467
0.000293498
0.000290067
0.000290593
0.0002926
0.000291276
0.000279976
0.000251806
0.000277731
0.000287007
0.000242386
0.00026329
0.000274538
0.000278454
0.000279218
0.000280498
0.000283896
0.000288074
0.000289081
0.000288879
0.0002889
0.000284545
0.000279735
0.000276821
0.000274546
0.000269238
0.000256576
0.000234504
0.000274525
0.000277135
0.000226136
0.000241987
0.000256414
0.000266029
0.000272101
0.000277015
0.000281288
0.000281527
0.000274948
0.000272909
0.000280755
0.000281448
0.000276554
0.000270217
0.000262747
0.000251999
0.000236473
0.00021943
0.000266253
0.000262007
0.000212851
0.000225099
0.000241266
0.000254895
0.00026515
0.000272155
0.000274271
0.000265496
0.000245449
0.000239888
0.00026042
0.000271941
0.000270653
0.00026303
0.000251975
0.000237623
0.000220622
0.000207021
0.000252163
0.000239247
0.000201378
0.000212026
0.000228143
0.000242864
0.000253802
0.000259072
0.000255154
0.000235783
0.000202932
0.000193755
0.000224455
0.000248585
0.000254948
0.000250418
0.000239619
0.000224746
0.000208077
0.0001961
0.000230962
0.000210503
0.00019056
0.000201755
0.000216326
0.00022912
0.000237405
0.000238116
0.000226774
0.00020029
0.000167447
0.000156384
0.000186184
0.00021609
0.000230761
0.000232136
0.000224949
0.00021257
0.000197764
0.000185549
0.000203855
0.000173443
0.000174402
0.000189425
0.000203254
0.000213574
0.000218685
0.000215915
0.000201856
0.000177228
0.000154488
0.000142676
0.000164172
0.000188752
0.000206606
0.000212198
0.00020875
0.000199207
0.000185417
0.000169805
0.000168516
0.000125441
0.000196137
0.000247187
0.000279071
0.000294561
0.000295036
0.000279533
0.000244801
0.00020061
0.00015619
0.000137315
0.000179818
0.000222721
0.000264465
0.000284956
0.000287683
0.00027427
0.000243657
0.00019317
0.000122421
0.000259684
0.000360468
0.000441576
0.000503241
0.000552387
0.000595888
0.000635018
0.000667622
0.00069634
0.00072045
0.000726195
0.000704817
0.000675749
0.000640913
0.000598515
0.000551129
0.000498673
0.00043421
0.000351191
0.000250022
0.000330035
0.000307724
0.000334938
0.000338458
0.000333018
0.00032815
0.000326775
0.000329218
0.000334895
0.000341184
0.000341469
0.000336534
0.000331425
0.000328773
0.000329348
0.000332767
0.00033597
0.000329286
0.000299089
0.000316918
0.000358082
0.000284984
0.000296996
0.000296881
0.000290875
0.000283943
0.00027975
0.000278688
0.000279768
0.000279991
0.000279078
0.000279671
0.000279062
0.000279646
0.000282928
0.000288603
0.000293127
0.000291154
0.000276795
0.000343548
0.000355183
0.000268527
0.000274538
0.00027687
0.000274953
0.000270733
0.000266552
0.000262972
0.000258535
0.000251147
0.00024904
0.000257122
0.000262438
0.000265581
0.000268702
0.000271917
0.000272802
0.000269015
0.000261052
0.000340726
0.000338861
0.000255967
0.000256414
0.000260848
0.000263663
0.000264282
0.00026271
0.00025806
0.000248107
0.000232024
0.000227848
0.000244433
0.000256383
0.000261307
0.000262231
0.000260794
0.000257138
0.000251516
0.000249296
0.00032629
0.000317427
0.00024471
0.000241266
0.000246153
0.000251882
0.000256457
0.000258295
0.000253776
0.000238703
0.000213883
0.000206956
0.000231781
0.000250088
0.000256041
0.000254263
0.000249241
0.000242839
0.000236842
0.000238349
0.000306353
0.000287327
0.000232426
0.000228143
0.000232633
0.000239021
0.000244609
0.000246832
0.000241852
0.000224185
0.000195557
0.000186188
0.000214266
0.000235747
0.000243307
0.000241619
0.000236082
0.0002293
0.000223813
0.000226164
0.000277657
0.000249666
0.0002177
0.000216326
0.000220553
0.000225915
0.000229938
0.000229868
0.000223112
0.000206043
0.000182876
0.000172351
0.000195595
0.000214991
0.000223904
0.000225444
0.00022212
0.000216736
0.000211742
0.000211529
0.000241625
0.000202485
0.000195906
0.000203254
0.000210697
0.00021647
0.00021918
0.000216816
0.000208772
0.000195131
0.00017961
0.000167566
0.000185542
0.000199744
0.000209097
0.000213495
0.000212022
0.000206613
0.000198733
0.000190315
0.000196351
0.000143146
0.000221701
0.000279071
0.000314684
0.000331014
0.00032967
0.000309948
0.000271419
0.000227588
0.000178479
0.000157348
0.000205824
0.000251752
0.000293327
0.000318632
0.000323529
0.000309358
0.00027488
0.000217824
0.000139207
0.000286839
0.000399292
0.000486244
0.000552387
0.000609258
0.000650817
0.000679323
0.000701855
0.000721673
0.000738717
0.000745203
0.000731787
0.00071179
0.000687027
0.000655124
0.000609549
0.000549005
0.000479716
0.000390359
0.00027711
0.000378823
0.000323766
0.000336918
0.000333018
0.000328902
0.00032578
0.000324657
0.000327088
0.000332876
0.000339643
0.000338884
0.000333699
0.000329362
0.000327556
0.000328535
0.00033072
0.000333041
0.000333582
0.000316375
0.00036515
0.000416313
0.000299068
0.000296659
0.000290875
0.00028448
0.000278235
0.000273374
0.000271085
0.000271054
0.000270785
0.000268187
0.000269254
0.000270773
0.0002735
0.000278096
0.0002837
0.000288998
0.000292736
0.000292013
0.000400964
0.000414432
0.000286193
0.000278454
0.000274953
0.000270956
0.000265535
0.000259165
0.00025265
0.000245136
0.000235187
0.000231696
0.00024207
0.000251022
0.000257782
0.000263775
0.000268733
0.000272198
0.000274388
0.000279514
0.000398956
0.000389571
0.000277655
0.000266029
0.000263663
0.000262855
0.000260825
0.000255968
0.000248064
0.000235364
0.00021727
0.000212141
0.000230493
0.000245234
0.000253766
0.000258496
0.000260315
0.000260738
0.000262008
0.000271316
0.000376032
0.000360617
0.000270062
0.000254895
0.000251882
0.00025252
0.000253795
0.000252462
0.000245985
0.000231287
0.000207861
0.000200676
0.000224457
0.000241954
0.000249631
0.000251372
0.000250022
0.000248879
0.000250681
0.00026341
0.000348582
0.000323834
0.000258019
0.000242864
0.000239021
0.000239671
0.00024192
0.000242952
0.000238718
0.00022541
0.000202509
0.000193526
0.000217481
0.000233608
0.000239472
0.00023914
0.000236877
0.000235702
0.000238255
0.000250989
0.000313062
0.000277827
0.000239497
0.00022912
0.000225915
0.000226171
0.000227695
0.000228578
0.000226189
0.000216646
0.000199843
0.00018973
0.00020902
0.000220351
0.000224005
0.000223873
0.000222673
0.000222057
0.00022409
0.000232426
0.000268762
0.000222801
0.00021192
0.000213574
0.00021647
0.000219387
0.000221102
0.000220492
0.000219263
0.000212277
0.000199122
0.000186578
0.000204541
0.000212692
0.000214582
0.000216273
0.000215362
0.000212452
0.000208727
0.000205606
0.000215789
0.000156743
0.000236248
0.000294561
0.000331014
0.000347465
0.000345168
0.000323404
0.000290095
0.000247426
0.000195433
0.000172834
0.000225263
0.000271151
0.000306631
0.000334028
0.000339933
0.000325524
0.000289933
0.000231635
0.000152073
0.00030754
0.000429978
0.000522484
0.000595888
0.000650817
0.000680594
0.000697278
0.000708866
0.000718924
0.000727928
0.00073584
0.000730906
0.000720172
0.000706156
0.000686069
0.000652223
0.000592906
0.000516548
0.000421356
0.000297823
0.000418953
0.000332817
0.000333837
0.00032815
0.00032578
0.000323299
0.000322745
0.000326283
0.000334124
0.000343938
0.000340849
0.000331949
0.000326543
0.000324799
0.000326199
0.000328474
0.000329446
0.000332234
0.000326518
0.000404871
0.000464295
0.000307992
0.000293139
0.000283943
0.000278235
0.000272733
0.000268426
0.000267265
0.000270464
0.000275707
0.000269253
0.000264665
0.000264666
0.00026769
0.000272744
0.000278301
0.000283343
0.000290662
0.00030185
0.000448394
0.00046296
0.000299375
0.000279218
0.000270733
0.000265535
0.000259747
0.000253171
0.000246395
0.000239619
0.000231657
0.000226517
0.000234787
0.000243537
0.000251187
0.000258115
0.000264074
0.000269098
0.000276308
0.000293257
0.000446844
0.00042871
0.000294394
0.000272101
0.000264282
0.000260825
0.000256958
0.000251244
0.000242811
0.00023047
0.00021359
0.000208074
0.000225275
0.000239359
0.00024844
0.000254505
0.00025866
0.000262076
0.000268773
0.000288093
0.000414452
0.000391427
0.00028967
0.00026515
0.000256457
0.000253795
0.000252585
0.000249862
0.000243346
0.00023026
0.000209391
0.000202319
0.00022415
0.000239296
0.000246634
0.000249828
0.000251354
0.000253664
0.000261024
0.000282516
0.000378746
0.000346054
0.000276156
0.000253802
0.000244609
0.00024192
0.000242651
0.000243015
0.000240097
0.000229928
0.000210289
0.000201689
0.000223486
0.000235717
0.000239622
0.000239791
0.00023917
0.000241269
0.000248947
0.000268492
0.000334988
0.000292689
0.000253039
0.000237405
0.000229938
0.000227695
0.000229038
0.000231483
0.000232451
0.000226834
0.000211756
0.000201714
0.000220711
0.000227982
0.000227866
0.000225813
0.000224482
0.000226129
0.000232157
0.000245474
0.000283356
0.000232496
0.000220382
0.000218685
0.00021918
0.000221102
0.000223565
0.000227047
0.000230432
0.0002259
0.0002109
0.000197737
0.00021871
0.000225178
0.000222927
0.000219646
0.000217539
0.000215365
0.000213788
0.000213779
0.000225185
0.000164851
0.000240065
0.000295036
0.00032967
0.000345168
0.000342222
0.000325292
0.000298359
0.000258187
0.000205361
0.000182244
0.000236574
0.000281096
0.000311754
0.000331785
0.000338146
0.000324459
0.000290372
0.000235113
0.000159748
0.000323434
0.000455177
0.000553597
0.000635018
0.000679323
0.000697278
0.000702445
0.000703301
0.000703072
0.000701907
0.000713828
0.000719049
0.000716384
0.000712268
0.000703585
0.000681565
0.000632679
0.000547978
0.000446672
0.000313699
0.000451826
0.000339019
0.000330986
0.000326775
0.000324657
0.000322745
0.000323856
0.000330816
0.000344704
0.000362753
0.000355555
0.000336222
0.000326214
0.000322939
0.000324234
0.000327003
0.000328349
0.000330221
0.000333325
0.000437178
0.000502859
0.000316025
0.000291222
0.00027975
0.000273374
0.000268426
0.000266001
0.000269936
0.000285307
0.000310357
0.000292688
0.000268899
0.000261275
0.000262442
0.000267469
0.000273489
0.000279705
0.000289428
0.000310227
0.000486273
0.000500742
0.000312129
0.000280498
0.000266552
0.000259165
0.000253171
0.000247099
0.000241788
0.000239134
0.000238684
0.000229408
0.00023047
0.000236577
0.000244001
0.000251363
0.000258216
0.000265715
0.000278189
0.000305952
0.000483941
0.000458534
0.000310586
0.000277015
0.00026271
0.000255968
0.000251244
0.000245459
0.000237152
0.000225415
0.000210204
0.000204419
0.000219889
0.000233123
0.000242252
0.000248828
0.00025431
0.000261128
0.000273902
0.00030337
0.000442815
0.0004106
0.000304966
0.000272155
0.000258295
0.000252462
0.000249862
0.000246791
0.000240427
0.000227662
0.000207462
0.000200733
0.000222032
0.000236263
0.000243337
0.000247071
0.000250141
0.000255669
0.00026783
0.000296789
0.000397208
0.000354325
0.000286108
0.000259072
0.000246832
0.000242952
0.000243015
0.000243583
0.000241369
0.000231622
0.000211662
0.000203281
0.000225778
0.000237099
0.000240146
0.000240156
0.000240299
0.0002436
0.000254034
0.000277779
0.000343155
0.000292298
0.000255469
0.000238116
0.000229868
0.000228578
0.000231483
0.00023584
0.000238416
0.000232784
0.000215124
0.000204901
0.000226843
0.000234147
0.00023254
0.000228632
0.000225773
0.000226414
0.000233106
0.000247982
0.000283517
0.000228975
0.000218198
0.000215915
0.000216816
0.000220492
0.000227047
0.000234552
0.000239496
0.000233481
0.000213491
0.00019986
0.000225821
0.000234232
0.000230957
0.000223979
0.000217517
0.0002135
0.000211501
0.000212058
0.000222267
0.000165555
0.000231612
0.000279533
0.000309948
0.000323404
0.000325292
0.000316445
0.000295081
0.000258264
0.000206763
0.000184258
0.000238228
0.000279935
0.000305454
0.000317368
0.00031761
0.000305685
0.000275537
0.00022703
0.000160541
0.000335958
0.000477683
0.000585405
0.000667622
0.000701855
0.000708866
0.000703301
0.00069332
0.000677527
0.000638885
0.000672214
0.000705341
0.000710403
0.000714548
0.000716004
0.000704791
0.000665737
0.000578728
0.000468841
0.000326114
0.000478721
0.000345211
0.00033276
0.000329218
0.000327088
0.000326283
0.000330816
0.000345388
0.000374004
0.000408254
0.000397469
0.000354453
0.000331966
0.000324465
0.00032477
0.000327952
0.0003301
0.000331387
0.000339415
0.000463251
0.000533062
0.000325511
0.000293275
0.000278688
0.000271085
0.000267265
0.000269936
0.000288664
0.000340013
0.000423875
0.000375345
0.000296235
0.000265504
0.000259939
0.000263754
0.000270369
0.000278468
0.000291299
0.000319375
0.000515492
0.000528473
0.000326663
0.000283896
0.000262972
0.00025265
0.000246395
0.000241788
0.000240902
0.000249888
0.00027123
0.000249046
0.000231373
0.000230456
0.000236458
0.000243995
0.000251936
0.00026259
0.000281617
0.000319733
0.000510728
0.000479771
0.000328304
0.000281288
0.00025806
0.000248064
0.000242811
0.000237152
0.000228664
0.000216762
0.000203352
0.000196982
0.000210485
0.000223924
0.00023374
0.000240729
0.000247089
0.000257125
0.000277981
0.000319604
0.000463273
0.000418961
0.000318006
0.000274271
0.000253776
0.000245985
0.000243346
0.000240427
0.000233313
0.000218209
0.000195604
0.00019003
0.000213022
0.000229083
0.000237081
0.000240987
0.000244324
0.000251725
0.000269758
0.000308131
0.000405192
0.000348876
0.000286513
0.000255154
0.000241852
0.000238718
0.000240097
0.000241369
0.000238503
0.000226018
0.000202397
0.000194377
0.000220159
0.000233888
0.000237876
0.0002375
0.000236604
0.000239264
0.000250494
0.000277768
0.000338138
0.000273549
0.000242258
0.000226774
0.000223112
0.000226189
0.000232451
0.000238416
0.00024026
0.000230958
0.000207636
0.000197301
0.000224245
0.000235208
0.000234847
0.00022976
0.000223945
0.000220637
0.00022309
0.000236083
0.000266252
0.000208237
0.000200481
0.000201856
0.000208772
0.000219263
0.000230432
0.000239496
0.000242712
0.000232095
0.00020561
0.000192058
0.000223468
0.000236463
0.000235439
0.000227399
0.000216743
0.000206294
0.00019883
0.000196129
0.000203309
0.00015622
0.000207523
0.000244801
0.000271419
0.000290095
0.000298359
0.000295081
0.000278511
0.000245856
0.00019797
0.000177802
0.000228876
0.00026615
0.000286615
0.000292677
0.000286271
0.000268672
0.000242449
0.000204312
0.000152002
0.000345834
0.00049851
0.000619633
0.00069634
0.000721673
0.000718924
0.000703072
0.000677527
0.000593059
0.000481476
0.000529454
0.000672569
0.000705414
0.0007172
0.000727169
0.00072521
0.000694643
0.000612652
0.000489416
0.000335866
0.000499707
0.000351794
0.000338951
0.000334895
0.000332876
0.000334124
0.000344704
0.000374004
0.00042621
0.000447221
0.000460732
0.00039761
0.000346429
0.000329983
0.000328075
0.000331339
0.000334416
0.000336654
0.000345528
0.00048314
0.000554974
0.000336239
0.000298685
0.000279768
0.000271054
0.000270464
0.000285307
0.000340013
0.000479191
0.000687061
0.000582608
0.000373948
0.000285683
0.000262578
0.000262154
0.000268639
0.000278889
0.000296091
0.000329307
0.000536191
0.000546847
0.000342324
0.000288074
0.000258535
0.000245136
0.000239619
0.000239134
0.000249888
0.000289259
0.00037032
0.000309209
0.000246986
0.000228409
0.000229491
0.00023595
0.000244473
0.000258528
0.000285524
0.000334111
0.000527993
0.000491955
0.000346102
0.000281527
0.000248107
0.000235364
0.00023047
0.000225415
0.000216762
0.00020516
0.000196893
0.000188309
0.000197798
0.000211431
0.000222072
0.000229024
0.000235434
0.000248225
0.000278225
0.000335313
0.000474637
0.000417122
0.000326894
0.000265496
0.000238703
0.000231287
0.00023026
0.000227662
0.000218209
0.000197791
0.000172047
0.00016921
0.000195262
0.000215229
0.000225328
0.000229043
0.000231057
0.000238287
0.000261785
0.000315177
0.000403149
0.000331171
0.000274658
0.000235783
0.000224185
0.00022541
0.000229928
0.000231622
0.000226018
0.000207798
0.000179043
0.000173534
0.000203592
0.000222157
0.000228849
0.000228228
0.000224607
0.000223491
0.000233207
0.000266348
0.000321284
0.000239754
0.000207809
0.00020029
0.000206043
0.000216646
0.000226834
0.000232784
0.000230958
0.000215212
0.00018603
0.000177515
0.000209143
0.000225919
0.00022936
0.00022456
0.000215329
0.000205363
0.000199515
0.000205491
0.000234792
0.000166493
0.000162452
0.000177228
0.000195131
0.000212277
0.0002259
0.000233481
0.000232095
0.000215536
0.000184348
0.000173064
0.000207672
0.000225795
0.000229319
0.000222988
0.000210272
0.00019381
0.000176349
0.000161631
0.000165515
0.000134193
0.000167873
0.00020061
0.000227588
0.000247426
0.000258187
0.000258264
0.000245856
0.00021821
0.000176109
0.000161993
0.000206896
0.000237529
0.000252806
0.000254884
0.000245558
0.000226425
0.000199436
0.000165966
0.000131728
0.000352182
0.000514773
0.000648129
0.00072045
0.000738717
0.000727928
0.000701907
0.000638885
0.000481476
0.000423544
0.000479434
0.000590338
0.000697077
0.000720695
0.000737383
0.000742555
0.000718505
0.000640401
0.000505149
0.000342038
0.000514528
0.00035774
0.000345811
0.000341184
0.000339643
0.000343938
0.000362753
0.000408254
0.000447221
0.0004076
0.000454056
0.000454934
0.000367528
0.000337643
0.000332373
0.000335284
0.00033911
0.00034236
0.000350688
0.000496712
0.000568955
0.000345228
0.000303167
0.000279991
0.000270785
0.000275707
0.000310357
0.000423875
0.000687061
0.000836976
0.000825067
0.00050019
0.000321136
0.000268975
0.000261097
0.000266441
0.000278517
0.000299986
0.000337413
0.000548906
0.00055735
0.000354535
0.000289081
0.000251147
0.000235187
0.000231657
0.000238684
0.00027123
0.00037032
0.000584099
0.000424778
0.000282566
0.000231942
0.000223019
0.00022653
0.000234819
0.000251866
0.000286554
0.000345159
0.000537363
0.00049776
0.000358109
0.000274948
0.000232024
0.00021727
0.00021359
0.000210204
0.000203352
0.000196893
0.000201107
0.000187387
0.000188104
0.000198268
0.000207562
0.000213251
0.000218893
0.000233838
0.000272432
0.000345664
0.000479566
0.000407614
0.000322766
0.000245449
0.000213883
0.000207861
0.000209391
0.000207462
0.000195604
0.000172047
0.000146109
0.000149704
0.000176003
0.000196875
0.0002075
0.000210019
0.000209654
0.000215846
0.000243811
0.000310803
0.000393648
0.000306568
0.000246921
0.000202932
0.000195557
0.000202509
0.000210289
0.000211662
0.000202397
0.000179043
0.000146362
0.000151065
0.000182074
0.000202786
0.000211228
0.000210141
0.000203324
0.000197203
0.000203365
0.000240927
0.0002976
0.000202136
0.00016777
0.000167447
0.000182876
0.000199843
0.000211756
0.000215124
0.000207636
0.00018603
0.000151817
0.000154421
0.000186745
0.000206449
0.000213417
0.000210195
0.000199047
0.000183223
0.000168602
0.000167525
0.000198911
0.000112142
0.000127403
0.000154488
0.00017961
0.000199122
0.0002109
0.000213491
0.00020561
0.000184348
0.000149501
0.000149929
0.000182997
0.00020285
0.000210546
0.00020811
0.000196832
0.000178097
0.000153917
0.000127796
0.000113414
0.000104377
0.000130461
0.00015619
0.000178479
0.000195433
0.000205361
0.000206763
0.00019797
0.000176109
0.000140175
0.000139767
0.000173495
0.00019484
0.00020465
0.000204396
0.000195311
0.000178713
0.000156249
0.000129914
0.00010344
0.000351938
0.000516578
0.000652981
0.000726195
0.000745203
0.00073584
0.000713828
0.000672214
0.000529454
0.000479434
0.000532352
0.000647791
0.00070962
0.000726988
0.000743047
0.000748366
0.000724465
0.00064603
0.000507403
0.000342029
0.000513482
0.000357742
0.000346369
0.000341469
0.000338884
0.000340849
0.000355555
0.000397469
0.000460732
0.000454056
0.000492596
0.000435047
0.000355872
0.000332564
0.000330606
0.000335117
0.000339622
0.000343017
0.000350684
0.000495948
0.000567084
0.00034588
0.000303411
0.000279078
0.000268187
0.000269253
0.000292688
0.000375345
0.000582608
0.000825067
0.000728483
0.000429361
0.000296101
0.000260299
0.000257543
0.000264665
0.000277767
0.000300235
0.000338066
0.000546889
0.000555037
0.000356003
0.000288879
0.00024904
0.000231696
0.000226517
0.000229408
0.000249046
0.000309209
0.000424777
0.000340424
0.000251294
0.000220167
0.000217005
0.000222233
0.000231353
0.000249521
0.000286112
0.000346543
0.000534444
0.000494702
0.000359272
0.000272909
0.000227848
0.000212141
0.000208074
0.000204419
0.000196982
0.000188309
0.000187387
0.000178289
0.000181511
0.000192308
0.000201593
0.000207265
0.000213139
0.000228989
0.000269813
0.00034642
0.000475514
0.00040269
0.000320517
0.000239888
0.000206956
0.000200676
0.000202319
0.000200733
0.00019003
0.00016921
0.000149704
0.000150542
0.000171399
0.000189909
0.000199621
0.000201788
0.000201294
0.000207732
0.000237174
0.000307647
0.000387299
0.000298741
0.000239353
0.000193755
0.000186188
0.000193526
0.000201689
0.000203281
0.000194377
0.000173534
0.000151065
0.000151613
0.000175037
0.000193321
0.000201127
0.000199767
0.000192575
0.000186058
0.000192476
0.000231818
0.000287881
0.000187418
0.0001567
0.000156384
0.000172351
0.00018973
0.000201714
0.000204901
0.000197301
0.000177515
0.000154421
0.000152966
0.000176809
0.000194194
0.000200857
0.000197818
0.000186703
0.000170495
0.00015525
0.000154195
0.00018166
0.000101105
0.000115692
0.000142676
0.000167566
0.000186578
0.000197737
0.00019986
0.000192058
0.000173064
0.000149929
0.000146306
0.000169984
0.000186765
0.000193846
0.000191894
0.000181474
0.000163491
0.000139679
0.000113573
9.97423e-05
9.08338e-05
0.000114634
0.000137315
0.000157348
0.000172834
0.000182244
0.000184258
0.000177802
0.000161993
0.000139767
0.000134136
0.000156436
0.000171325
0.00017785
0.000176391
0.000167702
0.000152846
0.000133241
0.000110728
8.7161e-05
0.00034526
0.000500417
0.000625989
0.000704817
0.000731787
0.000730906
0.000719049
0.000705341
0.000672569
0.000590338
0.000647791
0.000711529
0.000719302
0.000727204
0.000736649
0.000734654
0.000703602
0.000620269
0.00049193
0.00033561
0.000497167
0.000351235
0.000339993
0.000336534
0.000333699
0.000331949
0.000336222
0.000354453
0.00039761
0.000454934
0.000435047
0.000363749
0.000331177
0.000324453
0.000327431
0.00033283
0.000336277
0.000337712
0.000344794
0.000480794
0.000550865
0.000336742
0.000299467
0.000279671
0.000269254
0.000264665
0.000268899
0.000296235
0.000373948
0.00050019
0.000429361
0.000307601
0.000261397
0.000253843
0.000258995
0.000267545
0.000278811
0.000296756
0.000329726
0.000531516
0.000541914
0.000344603
0.0002889
0.000257122
0.00024207
0.000234787
0.00023047
0.000231373
0.000246986
0.000282566
0.000251294
0.000221351
0.000216926
0.000223198
0.000231532
0.000241033
0.000256475
0.000285843
0.000336292
0.000521633
0.000486464
0.000349326
0.000280755
0.000244433
0.000230493
0.000225275
0.000219889
0.000210485
0.000197798
0.000188104
0.000181511
0.000191032
0.000204851
0.000215664
0.000222646
0.000229228
0.000243181
0.000276357
0.000338171
0.000467009
0.00040995
0.000327055
0.00026042
0.000231781
0.000224457
0.00022415
0.000222032
0.000213022
0.000195262
0.000176003
0.000171399
0.000190272
0.000207818
0.000217443
0.000220742
0.000222084
0.000229232
0.000254658
0.00031356
0.000393134
0.000319552
0.000263334
0.000224455
0.000214266
0.000217481
0.000223486
0.000225778
0.00022016
0.000203592
0.000182074
0.000175037
0.000195911
0.000212937
0.000219861
0.00021894
0.00021397
0.000210756
0.000218794
0.000252195
0.000305874
0.000223743
0.000191192
0.000186184
0.000195595
0.00020902
0.000220711
0.000226843
0.000224245
0.000209143
0.000186745
0.000176809
0.000198854
0.000215061
0.000219642
0.000215179
0.000204732
0.000191809
0.000181676
0.000184069
0.000213982
0.000143005
0.000144962
0.000164172
0.000185542
0.000204541
0.00021871
0.000225821
0.000223468
0.000207672
0.000182997
0.000169984
0.000194895
0.000212274
0.000217152
0.000211963
0.000199248
0.000181109
0.00015987
0.000139749
0.000135618
0.000119782
0.000150634
0.000179818
0.000205824
0.000225263
0.000236574
0.000238228
0.000228876
0.000206896
0.000173495
0.000156436
0.00019064
0.000214776
0.000226269
0.000226379
0.000216498
0.000198053
0.00017271
0.000143779
0.000113505
0.000334852
0.000478874
0.00059107
0.000675749
0.00071179
0.000720172
0.000716384
0.000710403
0.000705414
0.000697077
0.00070962
0.000719302
0.000720228
0.000723935
0.000725695
0.000714505
0.000674706
0.000586025
0.000470813
0.000325502
0.0004749
0.000343789
0.000333449
0.000331425
0.000329362
0.000326543
0.000326214
0.000331966
0.000346429
0.000367528
0.000355872
0.000331177
0.000322022
0.000321666
0.000325819
0.000330436
0.000332197
0.000331757
0.000337571
0.000459597
0.00052726
0.000324766
0.000293498
0.000279062
0.000270773
0.000264666
0.000261275
0.000265504
0.000285683
0.000321136
0.000296101
0.000261397
0.000251961
0.000255076
0.000262341
0.000270178
0.000278549
0.000291131
0.000318287
0.000508911
0.000521618
0.000327577
0.000284545
0.000262438
0.000251022
0.000243537