/*--------------------------------*- C++ -*----------------------------------*\
  =========                 |
  \\      /  F ield         | OpenFOAM: The Open Source CFD Toolbox
   \\    /   O peration     | Website:  https://openfoam.org
    \\  /    A nd           | Version:  dev
     \\/     M anipulation  |
\*---------------------------------------------------------------------------*/
FoamFile
{
    version     2.0;
    format      ascii;
    class       volScalarField;
    location    "50";
    object      k;
}
// * * * * * * * * * * * * * * * * * * * * * * * * * * * * * * * * * * * * * //

dimensions      [0 2 -2 0 0 0 0];

internalField   nonuniform List<scalar> 
4000
(
0.00177502
0.00218331
0.00252936
0.00278322
0.00296995
0.00310776
0.00321118
0.00329159
0.00335404
0.00339402
0.00339377
0.00335212
0.0032864
0.00319965
0.00308859
0.00294261
0.00274801
0.0024874
0.0021365
0.00172431
0.00183358
0.0023959
0.00287907
0.00326833
0.00357883
0.00382328
0.00401704
0.00417152
0.00429004
0.0043726
0.00436707
0.00427547
0.00414921
0.00398724
0.00378589
0.00353464
0.00321899
0.00282669
0.00234277
0.0017816
0.00184516
0.00246912
0.00300596
0.00345242
0.00381363
0.00409712
0.00431653
0.0044832
0.00460122
0.00467488
0.00466395
0.00457685
0.00444872
0.00427433
0.00404883
0.00376121
0.00339813
0.0029516
0.00241552
0.00179353
0.00182307
0.00244328
0.00297972
0.00343356
0.00380267
0.00408982
0.00430419
0.00445577
0.00455241
0.00460527
0.00459113
0.0045225
0.00441439
0.00425568
0.00403729
0.00374911
0.00338117
0.00292909
0.00239299
0.00177342
0.00177411
0.00238833
0.00290691
0.00332373
0.00364545
0.00388205
0.00405649
0.00417294
0.00423414
0.00425836
0.0042382
0.00419923
0.00412574
0.00400379
0.0038319
0.00359588
0.00327589
0.00286149
0.00234435
0.00172827
0.00172395
0.00229262
0.00279584
0.00317852
0.00345942
0.00365044
0.00376347
0.00380556
0.00378348
0.00371432
0.00368109
0.00373652
0.00375174
0.00370871
0.00359988
0.00341294
0.00313594
0.00275829
0.00225754
0.00168183
0.00166622
0.00217427
0.00262757
0.00297082
0.00321728
0.00336028
0.00340772
0.00336207
0.003233
0.00305608
0.00299816
0.00315181
0.00328649
0.0033418
0.00330584
0.0031744
0.00293501
0.00259704
0.00214542
0.00162839
0.00158728
0.00202133
0.00240928
0.00270213
0.00290283
0.00300441
0.00299697
0.00285505
0.00259479
0.00228791
0.00215415
0.00247068
0.00274621
0.00291323
0.00294741
0.00286201
0.00267185
0.00238507
0.00199812
0.00155487
0.00146629
0.00180912
0.00211514
0.00234782
0.00250438
0.00257728
0.00254976
0.00238694
0.00204242
0.00154667
0.00144571
0.00183413
0.00225702
0.00246415
0.00252243
0.00246731
0.0023223
0.00209612
0.00179123
0.00144135
0.0012904
0.00150785
0.00170283
0.00186205
0.00198038
0.0020499
0.00205697
0.00197894
0.00178771
0.00151411
0.00137802
0.00165827
0.00188735
0.00199595
0.00200953
0.00195271
0.00184294
0.0016891
0.0014964
0.00127743
0.00218331
0.00270724
0.0031383
0.00345821
0.00369809
0.00388187
0.00402957
0.00416051
0.00427867
0.00436989
0.00438195
0.00429189
0.00416994
0.00402837
0.00386906
0.00367254
0.00341984
0.00308795
0.00264711
0.00211694
0.0023959
0.00376074
0.00467797
0.00534739
0.00584943
0.006229
0.00653457
0.00679463
0.00701704
0.00719789
0.00720923
0.00702335
0.00678787
0.00651275
0.00618914
0.00579103
0.00527205
0.00458996
0.00367112
0.00231983
0.00246912
0.00418122
0.00525933
0.00603527
0.00660611
0.0070254
0.0073515
0.00762292
0.00784636
0.00800401
0.00801078
0.00784897
0.00760848
0.00731763
0.00697191
0.00653527
0.00595059
0.00516534
0.00408887
0.00239073
0.00244328
0.00424668
0.00537214
0.00619427
0.00680337
0.00724768
0.00758276
0.00784966
0.00805805
0.00818625
0.00819166
0.00806634
0.00784098
0.00755284
0.00719759
0.00673829
0.00611923
0.00529075
0.00416623
0.00236832
0.00238833
0.0040655
0.00518821
0.00603912
0.0066735
0.00713765
0.00746224
0.00769289
0.00784806
0.00789547
0.0078761
0.00784941
0.00768193
0.00743589
0.00709213
0.0066196
0.00598191
0.00512854
0.00400397
0.0023207
0.00229262
0.00381903
0.00486815
0.00566359
0.0062582
0.00667728
0.00691839
0.00701888
0.00698955
0.00675701
0.00669049
0.00692966
0.00696197
0.00686223
0.00662364
0.00621118
0.00562208
0.00482885
0.00377529
0.00223273
0.00217427
0.00354361
0.00448128
0.00516955
0.00566318
0.00596891
0.00606961
0.00593858
0.00557824
0.00501506
0.0048761
0.00532627
0.00578892
0.00596702
0.00589726
0.00561462
0.00513554
0.00445375
0.00351226
0.00212218
0.00202133
0.00324857
0.00405089
0.00459926
0.00495711
0.0051321
0.00509527
0.00478234
0.00411601
0.00339515
0.00320806
0.00381203
0.00455371
0.00494979
0.00504042
0.00490035
0.00456357
0.00402554
0.00322263
0.00197746
0.00180912
0.00284331
0.00347614
0.00386705
0.00408905
0.00416125
0.00406111
0.00372587
0.00307414
0.00241432
0.00221288
0.00276739
0.00348167
0.00390895
0.00406654
0.00402902
0.00382779
0.003448
0.00281783
0.00177442
0.00150785
0.00197783
0.00228878
0.00248554
0.00259576
0.00262671
0.00256792
0.00238952
0.00207656
0.0017565
0.0016089
0.00193165
0.00225084
0.00247792
0.00256738
0.00255479
0.0024562
0.00226647
0.00195832
0.00148517
0.00252936
0.0031383
0.00361033
0.0039549
0.00421373
0.00441827
0.00459015
0.00476754
0.00495036
0.00509971
0.00512748
0.00498681
0.00480094
0.00460598
0.00441939
0.00419826
0.00392279
0.00356237
0.0030771
0.00246025
0.00287907
0.00467797
0.00581653
0.00657595
0.0070738
0.00739403
0.00762654
0.00780745
0.0079625
0.00808805
0.00809927
0.00798608
0.00782929
0.00763847
0.00738392
0.00703626
0.00650922
0.00572466
0.0045766
0.00279297
0.00300596
0.00525933
0.00655397
0.00739113
0.0079156
0.00822146
0.00840141
0.00851526
0.00857618
0.00859205
0.00858387
0.00857065
0.00850606
0.00838109
0.00818091
0.00785297
0.00730672
0.0064508
0.00515042
0.00291299
0.00297972
0.00537214
0.00668993
0.0075574
0.00811178
0.00842604
0.00857353
0.00860501
0.00852861
0.00838887
0.008354
0.00848878
0.00856941
0.008535
0.00837422
0.00804531
0.00747727
0.00659671
0.00527268
0.00288732
0.00290691
0.00518821
0.00645651
0.00732998
0.00792481
0.00826867
0.00840568
0.0083541
0.00809873
0.00773877
0.00765387
0.00799666
0.00827724
0.00834814
0.00821296
0.00786518
0.00726676
0.0063844
0.00510396
0.00282541
0.00279584
0.00486815
0.00605771
0.00687967
0.00744418
0.00777465
0.00787217
0.007707
0.00723506
0.00659301
0.00643584
0.00703563
0.00756557
0.00778378
0.00771093
0.00739323
0.00683358
0.00600688
0.00480322
0.00272057
0.00262757
0.00448128
0.00556758
0.00629588
0.00677667
0.00703204
0.007041
0.0067493
0.00609164
0.00520072
0.00497056
0.00577432
0.00654238
0.00691348
0.00695184
0.00672485
0.00625814
0.00553068
0.00443252
0.00256155
0.00240928
0.00405089
0.00501366
0.00561743
0.00597672
0.00612171
0.00602854
0.005633
0.0048927
0.0039805
0.00370433
0.00453235
0.0053834
0.00586406
0.00602062
0.00591525
0.00557745
0.00498063
0.00401184
0.00235326
0.00211514
0.00347614
0.00426638
0.00472104
0.0049528
0.00500283
0.00486002
0.00447777
0.00381061
0.00307641
0.00280481
0.00348128
0.00422946
0.00469178
0.00489707
0.00488633
0.00467691
0.00423212
0.00344139
0.00207013
0.00170283
0.00228878
0.00266905
0.00289461
0.00300292
0.00300942
0.00290722
0.00266584
0.00233663
0.00197888
0.00181328
0.00217105
0.00250228
0.00280151
0.00294007
0.00295519
0.00285988
0.00264124
0.00226222
0.00167127
0.00278322
0.00345821
0.0039549
0.00431134
0.00458549
0.00482396
0.00503091
0.00520097
0.00534887
0.00547097
0.00550209
0.00539467
0.00524567
0.00506479
0.00484111
0.00458196
0.00428861
0.00391383
0.00340117
0.00271594
0.00326833
0.00534739
0.00657595
0.00731978
0.00773271
0.00791976
0.00802593
0.00811677
0.00820644
0.00828199
0.00829039
0.00824301
0.00816647
0.00807273
0.00795024
0.00773426
0.00728342
0.00650114
0.00525001
0.00318081
0.00345242
0.00603527
0.00739113
0.00818208
0.0085974
0.00875087
0.00874965
0.00868789
0.00858967
0.00847082
0.00844147
0.0085692
0.00868438
0.00874676
0.0087335
0.00856121
0.00812101
0.00730256
0.00592877
0.00335579
0.00343356
0.00619427
0.0075574
0.00836946
0.00881364
0.00896914
0.00890352
0.00868955
0.00836301
0.00799411
0.00791683
0.008273
0.00862754
0.00885501
0.0089213
0.00875859
0.00830269
0.00747311
0.00609391
0.00333544
0.00332373
0.00603912
0.00732998
0.00813512
0.00862151
0.00883077
0.00877146
0.00845252
0.00790863
0.00726857
0.00712645
0.00773134
0.00832713
0.00868442
0.00876631
0.00856471
0.00807668
0.00725869
0.00594872
0.00323698
0.00317852
0.00566359
0.00687967
0.00763982
0.00811656
0.00834723
0.00832011
0.00796033
0.00725124
0.00636165
0.00614355
0.00697866
0.00777327
0.00820546
0.00827601
0.00806571
0.00759396
0.00682391
0.00558701
0.00310001
0.00297082
0.00516955
0.00629588
0.00698527
0.00740692
0.00760148
0.00754779
0.00718588
0.00641879
0.00538947
0.00510038
0.00606845
0.00695383
0.00742394
0.00752147
0.00735608
0.00694609
0.00625158
0.00510706
0.00289929
0.00270213
0.00459926
0.00561743
0.00621313
0.00654537
0.00666384
0.00655672
0.00618747
0.00544604
0.00447357
0.00414612
0.00507725
0.0059304
0.00639605
0.00656619
0.00648619
0.00617215
0.00557772
0.00454771
0.00263903
0.00234782
0.00386705
0.00472104
0.00519587
0.00542788
0.00547189
0.00533031
0.00499339
0.00434387
0.00356398
0.00324895
0.00401155
0.00474122
0.00516828
0.00536968
0.00536392
0.00515201
0.00468292
0.00382356
0.00229541
0.00186205
0.00248554
0.00289461
0.00313539
0.00324434
0.00323856
0.00311245
0.00285249
0.00253942
0.00216173
0.00198466
0.00237304
0.0027116
0.00299914
0.00316474
0.00319376
0.00309779
0.00286259
0.00245259
0.00182348
0.00296995
0.00369809
0.00421373
0.00458549
0.004895
0.00511265
0.0052604
0.00537683
0.00547847
0.00556453
0.00559937
0.00553236
0.00543002
0.00530273
0.00513806
0.00489958
0.00457025
0.00417944
0.00364598
0.00290538
0.00357883
0.00584943
0.0070738
0.00773271
0.00801436
0.00812166
0.00815741
0.00817978
0.00820824
0.00824183
0.00824219
0.00824597
0.00824476
0.00822999
0.00818541
0.00805498
0.00773238
0.00702342
0.00576179
0.00349261
0.00381363
0.00660611
0.0079156
0.0085974
0.00888023
0.00890559
0.00879368
0.00861618
0.00841173
0.00821442
0.00816164
0.00837317
0.00861661
0.00881114
0.00892
0.00887856
0.00856997
0.00785239
0.00651021
0.00371752
0.00380267
0.00680337
0.00811178
0.00881364
0.00913364
0.00914371
0.00893587
0.00857492
0.0081016
0.00760395
0.00749514
0.00797853
0.00849973
0.00889035
0.00910884
0.00909937
0.00877164
0.0080482
0.00671103
0.00370398
0.00364545
0.0066735
0.00792481
0.00862151
0.0089944
0.00907642
0.0088661
0.00840458
0.00771733
0.00693554
0.00675849
0.00750143
0.00825732
0.00876982
0.00900994
0.00894641
0.00857665
0.00786437
0.00658416
0.00355724
0.00345942
0.0062582
0.00744418
0.00811656
0.00850332
0.00865119
0.008513
0.00805578
0.0072597
0.00626136
0.00601002
0.00695835
0.00785311
0.00838757
0.0085783
0.00845733
0.00807697
0.00739103
0.00617662
0.00337852
0.00321728
0.00566318
0.00677667
0.00740692
0.00777046
0.00792258
0.00784312
0.00743682
0.00664354
0.0055729
0.00525476
0.00629058
0.00720298
0.00770663
0.00784799
0.0077248
0.00737091
0.00673059
0.00559251
0.00314175
0.00290283
0.00495711
0.00597672
0.00654537
0.00685466
0.00696838
0.00689372
0.00653771
0.00581554
0.00482017
0.00446764
0.00545509
0.00629306
0.00674544
0.006881
0.0068029
0.00650799
0.005935
0.00489761
0.00283503
0.00250438
0.00408905
0.0049528
0.00542788
0.00566336
0.0057198
0.00561634
0.00531201
0.00468918
0.00387668
0.00353923
0.00436416
0.00507916
0.00548707
0.00563044
0.00560748
0.00538846
0.00491428
0.00403993
0.00244702
0.00198038
0.00259576
0.00300292
0.00324434
0.00335164
0.00333939
0.00320166
0.00298077
0.00268392
0.00229628
0.00211252
0.00251857
0.00284726
0.00308755
0.00326518
0.00330079
0.00320561
0.00296792
0.00255774
0.00193663
0.00310776
0.00388187
0.00441827
0.00482396
0.00511265
0.00526647
0.00535313
0.00541406
0.00546651
0.00551319
0.00555694
0.00553216
0.00547487
0.00540095
0.00529706
0.00512265
0.0048107
0.00438838
0.00383353
0.00304551
0.00382328
0.006229
0.00739403
0.00791976
0.00812166
0.00816707
0.00814357
0.0081106
0.00809457
0.00810983
0.00809794
0.00811942
0.00817373
0.00822584
0.00824994
0.00818811
0.00795157
0.00736633
0.00615051
0.00373806
0.00409712
0.0070254
0.00822146
0.00875087
0.00890559
0.00884382
0.00865125
0.00840251
0.00816197
0.00797802
0.00788808
0.00809026
0.00839782
0.00868437
0.00888677
0.0089398
0.00875956
0.00818523
0.00694075
0.00400181
0.00408982
0.00724768
0.00842604
0.00896914
0.00914371
0.00905133
0.00875723
0.00831397
0.00777927
0.00725308
0.00712064
0.00763786
0.00823832
0.00872535
0.0090414
0.00914129
0.00895986
0.00838787
0.00716502
0.0039916
0.00388205
0.00713765
0.00826867
0.00883077
0.00907642
0.00903772
0.00874364
0.00821015
0.00746274
0.00663681
0.00644662
0.00724103
0.00806428
0.00865541
0.0089874
0.00904862
0.00880944
0.00822704
0.00705227
0.00379274
0.00365044
0.00667728
0.00777465
0.00834723
0.00865119
0.00870811
0.00849812
0.00799019
0.00715942
0.00613684
0.00587375
0.00686247
0.00779176
0.00837571
0.00863888
0.00861781
0.00832168
0.00773178
0.00659488
0.00356809
0.00336028
0.00596891
0.00703204
0.00760148
0.00792258
0.00805388
0.00793241
0.00750299
0.00670045
0.00562223
0.00529721
0.00636114
0.00727873
0.00779898
0.00798196
0.00788722
0.00757587
0.00699239
0.00589741
0.00328465
0.00300441
0.0051321
0.00612171
0.00666384
0.00696838
0.00711217
0.00704017
0.00669247
0.0059763
0.00496544
0.00460711
0.00563053
0.00646287
0.0069051
0.00703808
0.0069295
0.006637
0.00608633
0.00507331
0.00293609
0.00257728
0.00416125
0.00500283
0.00547189
0.0057198
0.00580728
0.00574977
0.00545804
0.00484748
0.00400973
0.00366737
0.00453411
0.0052407
0.00562581
0.00574116
0.0056771
0.00544201
0.00496984
0.00411287
0.00251858
0.0020499
0.00262671
0.00300942
0.00323856
0.00333939
0.00332237
0.00321416
0.00303714
0.00276128
0.00237393
0.00218871
0.00260151
0.00291592
0.00312161
0.00325156
0.00329093
0.00320096
0.00297375
0.00258617
0.00200322
0.00321118
0.00402957
0.00459015
0.00503091
0.0052604
0.00535313
0.00538124
0.00538646
0.00538303
0.00537886
0.00544756
0.00547761
0.00545973
0.00543403
0.00538686
0.00527365
0.0050208
0.00456254
0.0039832
0.00315042
0.00401704
0.00653457
0.00762654
0.00802593
0.00815741
0.00814357
0.00807085
0.00800125
0.00797023
0.00800392
0.00798548
0.00796996
0.00804373
0.00814455
0.00823
0.00823568
0.00807324
0.00761305
0.0064605
0.003931
0.00431653
0.0073515
0.00840141
0.00874965
0.00879368
0.00865125
0.00840024
0.00813852
0.00798569
0.00799739
0.00781292
0.00782097
0.00809411
0.00843238
0.00871381
0.00885675
0.00878861
0.0083871
0.00727358
0.00422024
0.00430419
0.00758276
0.00857353
0.00890352
0.00893587
0.00875723
0.00839985
0.00791692
0.00739926
0.00696213
0.00679249
0.00723196
0.00784103
0.00838636
0.0087777
0.00897112
0.00893075
0.00856
0.00750606
0.00420518
0.00405649
0.00746224
0.00840568
0.00877146
0.0088661
0.00874364
0.0083947
0.00781786
0.00704725
0.00623522
0.00605491
0.00684629
0.00769389
0.00833128
0.00872379
0.00887448
0.00878344
0.0083859
0.00738312
0.00395998
0.00376347
0.00691839
0.00787217
0.00832011
0.008513
0.00849812
0.00824149
0.00769965
0.00684715
0.00583057
0.00558365
0.00657883
0.00752403
0.00813927
0.00845085
0.00850208
0.00831842
0.00784703
0.00683882
0.00367805
0.00340772
0.00606961
0.007041
0.00754779
0.00784312
0.00793241
0.00778159
0.00733094
0.00651498
0.00544237
0.0051321
0.00620482
0.0071267
0.00766393
0.00787693
0.00782694
0.00754515
0.0070193
0.00600565
0.00333216
0.00299697
0.00509527
0.00602854
0.00655672
0.00689372
0.00704017
0.00696789
0.00661548
0.00589119
0.00487408
0.00452953
0.0055693
0.00640345
0.00684864
0.00698387
0.00687552
0.00655197
0.00601302
0.00504966
0.00293256
0.00254976
0.00406111
0.00486002
0.00533031
0.00561634
0.00574977
0.00569637
0.00541035
0.00480498
0.00395813
0.00362898
0.00451165
0.00520979
0.00558379
0.00569443
0.00559449
0.00531801
0.00484272
0.00402424
0.00249535
0.00205697
0.00256792
0.00290722
0.00311245
0.00320166
0.00321416
0.00315726
0.00301612
0.0027629
0.00238595
0.00220529
0.00261359
0.00290841
0.00308058
0.00315858
0.00315951
0.00307986
0.00287516
0.00252946
0.00201111
0.00329159
0.00416051
0.00476754
0.00520097
0.00537683
0.00541406
0.00538646
0.00532855
0.00521489
0.00494795
0.00518648
0.00540488
0.00543209
0.00544786
0.00545061
0.00539194
0.00519231
0.00473334
0.00411281
0.00323121
0.00417152
0.00679463
0.00780745
0.00811677
0.00817978
0.00811059
0.00800125
0.00792394
0.00793127
0.00797621
0.00802175
0.00790811
0.0079261
0.00804852
0.00818574
0.00825731
0.00816795
0.00780356
0.00671981
0.00408257
0.0044832
0.00762292
0.00851526
0.00868789
0.00861618
0.00840251
0.00813852
0.00799302
0.00821887
0.00883042
0.00840174
0.00779562
0.00781697
0.00812911
0.00846684
0.00869785
0.00874806
0.00851615
0.00754521
0.00438353
0.00445577
0.00784966
0.00860501
0.00868955
0.00857492
0.00831397
0.00791692
0.00745666
0.00709573
0.00697449
0.00668416
0.00684127
0.00735225
0.00791374
0.00836466
0.0086487
0.00875331
0.0086129
0.00777162
0.00435368
0.00417294
0.00769289
0.0083541
0.00845252
0.00840458
0.00821015
0.00781786
0.00721087
0.00644066
0.00569646
0.0055481
0.00628571
0.00712852
0.00779622
0.00823535
0.00846092
0.00850887
0.00835897
0.00760519
0.00407393
0.00380556
0.00701888
0.007707
0.00796033
0.00805578
0.00799019
0.00769965
0.00712647
0.00624617
0.00524243
0.00506135
0.00604574
0.00700193
0.00764109
0.00798629
0.00808985
0.00800207
0.00771152
0.00693692
0.00371895
0.00336207
0.00593858
0.0067493
0.00718588
0.00743682
0.00750299
0.00733094
0.00685823
0.00602692
0.00497569
0.00471423
0.00577623
0.00669516
0.0072479
0.00748205
0.00745812
0.00722213
0.00676401
0.00589441
0.00328947
0.00285505
0.00478234
0.005633
0.00618747
0.00653771
0.00669247
0.00661548
0.00625087
0.00552009
0.00452222
0.00422008
0.0052445
0.00606939
0.00652186
0.00666291
0.00655104
0.00622084
0.00566026
0.00477261
0.00280036
0.00238694
0.00372587
0.00447777
0.00499339
0.00531201
0.00545804
0.00541035
0.00512856
0.00453767
0.00371428
0.00342205
0.00428224
0.00495396
0.00531684
0.00542051
0.00531061
0.00500895
0.00449176
0.00371893
0.00234498
0.00197894
0.00238952
0.00266584
0.00285249
0.00298077
0.00303714
0.00301612
0.00290433
0.00267564
0.00231987
0.0021539
0.002545
0.00281327
0.00295453
0.00299511
0.00295096
0.00282933
0.00264402
0.00236012
0.0019391
0.00335404
0.00427867
0.00495036
0.00534887
0.00547847
0.00546651
0.00538303
0.00521489
0.00462973
0.00412878
0.00442762
0.00519307
0.0054023
0.00546228
0.00550715
0.00549462
0.00533993
0.00491447
0.00423021
0.00329367
0.00429004
0.00701704
0.0079625
0.00820644
0.00820824
0.00809457
0.00797023
0.00793127
0.0079241
0.00708433
0.00778253
0.00805521
0.00787483
0.00797015
0.00814393
0.00827426
0.0082517
0.00795308
0.00693409
0.00419603
0.00460122
0.00784636
0.00857618
0.00858967
0.00841173
0.00816197
0.00798569
0.00821887
0.00935918
0.0109733
0.010239
0.00837049
0.00772655
0.0078558
0.00819659
0.00849839
0.00866247
0.00858279
0.0077624
0.00449631
0.00455241
0.00805805
0.00852861
0.00836301
0.0081016
0.00777927
0.00739926
0.00709573
0.00717916
0.00783862
0.0071652
0.00667179
0.00688397
0.00737473
0.0078491
0.00821106
0.00846234
0.0085544
0.00797275
0.00444576
0.00423414
0.00784806
0.00809873
0.00790863
0.00771733
0.00746274
0.00704725
0.00644066
0.00572574
0.00515769
0.00503383
0.00563633
0.00641542
0.00707862
0.00754231
0.00783068
0.00801828
0.00813296
0.00774834
0.00413193
0.00378348
0.00698955
0.00723506
0.00725124
0.0072597
0.00715942
0.00684715
0.00624617
0.00534077
0.00441203
0.0043475
0.00529112
0.00622134
0.00686321
0.00722164
0.00735957
0.00735915
0.00728627
0.00690737
0.0036961
0.003233
0.00557824
0.00609164
0.00641879
0.00664354
0.00670045
0.00651498
0.00602692
0.00519229
0.00420012
0.00406242
0.00507296
0.00595276
0.00649899
0.00673813
0.00672433
0.00652035
0.00617153
0.00556698
0.00316545
0.00259479
0.00411601
0.0048927
0.00544604
0.00581554
0.0059763
0.00589119
0.00552009
0.00480671
0.00388257
0.00368743
0.00463871
0.00541068
0.00585061
0.00599207
0.00587551
0.00553494
0.00498774
0.00418133
0.00255624
0.00204242
0.00307414
0.00381061
0.00434387
0.00468918
0.00484748
0.00480498
0.00453767
0.00399155
0.00325136
0.00304435
0.00382018
0.00442056
0.00475173
0.00484237
0.00471959
0.0043971
0.00387164
0.00312053
0.00203065
0.00178771
0.00207656
0.00233663
0.00253942
0.00268392
0.00276128
0.0027629
0.00267564
0.00247422
0.00214946
0.00202405
0.00237978
0.00260928
0.00271969
0.00273415
0.00266697
0.00252715
0.0023235
0.00205672
0.00176171
0.00339402
0.00436989
0.00509971
0.00547097
0.00556453
0.00551319
0.00537886
0.00494795
0.00412878
0.00380345
0.00415616
0.0047506
0.00535177
0.00548068
0.00555769
0.00558034
0.00545982
0.00505994
0.0043189
0.00333292
0.0043726
0.00719789
0.00808805
0.00828199
0.00824183
0.00810983
0.00800392
0.00797621
0.00708433
0.00509213
0.00592287
0.00832459
0.00792853
0.00793499
0.00811724
0.00828696
0.00831522
0.00806761
0.00710248
0.00427237
0.00467488
0.00800401
0.00859205
0.00847082
0.00821442
0.00797802
0.00799739
0.00883042
0.0109733
0.010996
0.0116476
0.0094252
0.00787289
0.00767388
0.00795507
0.00829526
0.0085508
0.00860026
0.00791157
0.00456407
0.00460527
0.00818625
0.00838887
0.00799411
0.00760395
0.00725308
0.00696213
0.00697449
0.00783862
0.00986378
0.00834737
0.00685224
0.00656342
0.00688129
0.0073297
0.00774477
0.00812654
0.00843071
0.00809326
0.0044935
0.00425836
0.00789547
0.00773877
0.00726857
0.00693554
0.00663681
0.00623522
0.00569646
0.00515769
0.00489358
0.00474832
0.00511294
0.005729
0.00631933
0.00677069
0.00710682
0.00743199
0.00780538
0.00778789
0.00415227
0.00371432
0.00675701
0.00659301
0.00636165
0.00626136
0.00613684
0.00583057
0.00524244
0.00441203
0.00364574
0.00374365
0.00455682
0.00535902
0.00593666
0.00627153
0.00643053
0.00653557
0.00669718
0.00669304
0.00362688
0.00305608
0.00501506
0.00520072
0.00538947
0.0055729
0.00562223
0.00544237
0.00497569
0.00420012
0.00332673
0.00343654
0.00429711
0.00504148
0.00551708
0.00572776
0.00571516
0.00555507
0.00534272
0.0050472
0.00299359
0.00228791
0.00339515
0.0039805
0.00447357
0.00482017
0.00496544
0.00487408
0.00452222
0.00388257
0.00307397
0.0031285
0.00391298
0.00454021
0.00491076
0.00503175
0.00491914
0.00460007
0.00411447
0.0034847
0.00226392
0.00154667
0.00241432
0.00307641
0.00356398
0.00387668
0.00400973
0.00395813
0.00371428
0.00325136
0.00261421
0.00261842
0.00323553
0.00369677
0.00395983
0.00403419
0.00392305
0.00362741
0.00314697
0.00247403
0.00155523
0.00151411
0.0017565
0.00197888
0.00216173
0.00229628
0.00237393
0.00238595
0.00231987
0.00214946
0.00185258
0.00183243
0.00211707
0.00228849
0.00236497
0.00236281
0.00229205
0.00216038
0.00197595
0.00174799
0.00150138
0.00339377
0.00438195
0.00512748
0.00550209
0.00559937
0.00555694
0.00544756
0.00518649
0.00442762
0.00415616
0.00448385
0.00509079
0.00542496
0.00551213
0.00558586
0.00560961
0.0054907
0.00509079
0.00433278
0.00333355
0.00436707
0.00720923
0.00809927
0.00829039
0.00824219
0.00809794
0.00798548
0.00802175
0.00778253
0.00592287
0.0067146
0.00821185
0.0078453
0.00789271
0.00809958
0.00828496
0.00832235
0.00807908
0.00711727
0.00426823
0.00466395
0.00801078
0.00858387
0.00844147
0.00816164
0.00788808
0.00781292
0.00840173
0.010239
0.0116476
0.0114154
0.00881141
0.00760637
0.00755099
0.00787953
0.00824116
0.00851625
0.00858799
0.0079184
0.00455235
0.00459113
0.00819166
0.008354
0.00791683
0.00749514
0.00712064
0.00679249
0.00668416
0.0071652
0.00834737
0.00739869
0.00644606
0.0063614
0.00672947
0.00719173
0.00762284
0.00803475
0.00838436
0.00809444
0.00447594
0.0042382
0.0078761
0.00765387
0.00712645
0.00675849
0.00644662
0.00605491
0.0055481
0.00503383
0.00474831
0.00463082
0.00497987
0.00555592
0.00611338
0.00655387
0.00690195
0.00726311
0.00769908
0.00775636
0.00412596
0.00368109
0.00669049
0.00643584
0.00614355
0.00601002
0.00587375
0.00558365
0.00506135
0.0043475
0.00374365
0.00377346
0.0044295
0.00512624
0.00564795
0.00596581
0.00613544
0.00627528
0.00650562
0.00660549
0.00358392
0.00299816
0.0048761
0.00497056
0.00510038
0.00525476
0.00529721
0.0051321
0.00471423
0.00406242
0.00343654
0.00345246
0.00410949
0.00473655
0.00515417
0.0053428
0.00533425
0.00520541
0.0050622
0.00487677
0.00292121
0.00215415
0.00320806
0.00370433
0.00414612
0.00446764
0.00460711
0.00452953
0.00422008
0.00368743
0.0031285
0.0031019
0.0036799
0.00419191
0.00450363
0.00460087
0.00449029
0.00419804
0.003772
0.00325209
0.00210608
0.00144571
0.00221288
0.00280481
0.00324895
0.00353923
0.00366737
0.00362898
0.00342205
0.00304435
0.00261842
0.00256195
0.00299998
0.00336002
0.00356799
0.00361882
0.00350896
0.0032379
0.00280903
0.00222196
0.00142949
0.00137802
0.0016089
0.00181328
0.00198466
0.00211252
0.00218871
0.00220529
0.0021539
0.00202405
0.00183243
0.00177414
0.00196888
0.002095
0.00214951
0.00213838
0.00206775
0.00194389
0.00177418
0.00156866
0.00133668
0.00335212
0.00429189
0.00498681
0.00539467
0.00553236
0.00553216
0.00547761
0.00540488
0.00519307
0.0047506
0.00509079
0.00543537
0.00547965
0.00551214
0.00555399
0.00554208
0.0053864
0.00495632
0.00424585
0.00329282
0.00427547
0.00702335
0.00798608
0.00824301
0.00824597
0.00811942
0.00796996
0.00790811
0.00805521
0.00832459
0.00821185
0.007869
0.00778537
0.00794588
0.00815673
0.00830442
0.00828344
0.00797482
0.00694374
0.00418223
0.00457685
0.00784897
0.00857065
0.0085692
0.00837317
0.00809026
0.00782097
0.00779562
0.00837049
0.0094252
0.00881141
0.00767735
0.00745481
0.00773544
0.00812488
0.00844541
0.0086255
0.00856544
0.00776277
0.00446874
0.0045225
0.00806634
0.00848878
0.008273
0.00797853
0.00763786
0.00723196
0.00684127
0.00667179
0.00685224
0.00644606
0.00631761
0.00667607
0.00719963
0.00767843
0.00805167
0.00833661
0.00848754
0.00797162
0.00440767
0.00419923
0.00784941
0.00799666
0.00773134
0.00750143
0.00724103
0.00684629
0.00628571
0.00563633
0.00511294
0.00497987
0.00550748
0.00621002
0.00682021
0.00725952
0.00755271
0.00778217
0.00798421
0.00772994
0.00408399
0.00373652
0.00692966
0.00703563
0.00697866
0.00695835
0.00686247
0.00657883
0.00604574
0.00529112
0.00455682
0.0044295
0.00515914
0.00594226
0.00651012
0.00683667
0.00697055
0.00700365
0.00701552
0.00679723
0.00362984
0.00315181
0.00532627
0.00577432
0.00606845
0.00629058
0.00636114
0.00620482
0.00577623
0.00507296
0.00429711
0.00410949
0.00486015
0.00560252
0.00608318
0.00629065
0.00626357
0.00606591
0.00576008
0.00525313
0.00305667
0.00247068
0.00381203
0.00453235
0.00507725
0.00545509
0.00563053
0.0055693
0.0052445
0.00463871
0.00391298
0.0036799
0.00437943
0.00503082
0.00541505
0.00552937
0.00539826
0.00505186
0.00451841
0.00378028
0.00239293
0.00183413
0.00276739
0.00348128
0.00401155
0.00436416
0.00453411
0.00451165
0.00428224
0.00382018
0.00323553
0.00299998
0.00356991
0.00407235
0.00435485
0.00442099
0.00428585
0.00395854
0.003442
0.00272584
0.00176326
0.00165827
0.00193165
0.00217105
0.00237304
0.00251857
0.00260151
0.00261359
0.002545
0.00237978
0.00211707
0.00196888
0.00224593
0.00243378
0.00252127
0.00252297
0.00244987
0.00230988
0.00210994
0.001869
0.00159671
0.0032864
0.00416994
0.00480094
0.00524567
0.00543002
0.00547487
0.00545973
0.00543209
0.0054023
0.00535177
0.00542496
0.00547965
0.00547956
0.00549283
0.00549824
0.00544109
0.00523941
0.00477407
0.00412547
0.00322802
0.00414921
0.00678787
0.00782929
0.00816647
0.00824476
0.00817373
0.00804373
0.0079261
0.00787483
0.00792853
0.0078453
0.00778537
0.00789455
0.0080666
0.00823107
0.00830902
0.00820818
0.00781995
0.00671382
0.00406064
0.00444872
0.00760848
0.00850606
0.00868438
0.00861661
0.00839782
0.00809411
0.00781696
0.00772655
0.00787289
0.00760637
0.00745481
0.00769905
0.00808598
0.00844165
0.00867255
0.00872061
0.0084897
0.00752456
0.00434437
0.00441439
0.00784098
0.00856941
0.00862754
0.00849973
0.00823832
0.00784103
0.00735225
0.00688397
0.00656342
0.0063614
0.00667607
0.00724299
0.00780593
0.00824698
0.00852906
0.00864936
0.00854526
0.00774951
0.00430157
0.00412574
0.00768193
0.00827724
0.00832713
0.00825732
0.00806428
0.00769389
0.00712852
0.00641542
0.005729
0.00555592
0.00621002
0.00698443
0.00760735
0.00802407
0.00824876
0.00832161
0.00823155
0.00757358
0.00401013
0.00375174
0.00696197
0.00756557
0.00777327
0.00785311
0.00779176
0.00752403
0.00700193
0.00622134
0.00535902
0.00512624
0.00594226
0.00678695
0.00737597
0.00770079
0.00780304
0.00773598
0.00750218
0.00683796
0.00364379
0.00328649
0.00578892
0.00654238
0.00695383
0.00720298
0.00727873
0.0071267
0.00669516
0.00595276
0.00504148
0.00473655
0.00560252
0.00642553
0.00693878
0.00715705
0.00712818
0.00689915
0.00647492
0.00568163
0.00318469
0.00274621
0.00455371
0.0053834
0.0059304
0.00629306
0.00646287
0.00640345
0.00606939
0.00541067
0.00454021
0.00419191
0.00503082
0.00577662
0.00619996
0.00632791
0.00620587
0.00586804
0.00531913
0.0044648
0.00265236
0.00225702
0.00348167
0.00422946
0.00474122
0.00507916
0.0052407
0.00520979
0.00495396
0.00442056
0.00369677
0.00336002
0.00407235
0.00468011
0.00501636
0.00510504
0.00498141
0.00466439
0.00415722
0.00339724
0.00217144
0.00188735
0.00225084
0.00250228
0.0027116
0.00284726
0.00291592
0.00290841
0.00281327
0.00260928
0.00228849
0.002095
0.00243378
0.00267567
0.00279977
0.00282673
0.00277097
0.00264067
0.00243214
0.00217563
0.00181878
0.00319965
0.00402837
0.00460598
0.00506479
0.00530273
0.00540095
0.00543403
0.00544786
0.00546228
0.00548068
0.00551213
0.00551214
0.00549283
0.00547092
0.00542746
0.00531533
0.00505956
0.00458135
0.00398412
0.00314142
0.00398724
0.00651275
0.00763847
0.00807273
0.00822999
0.00822584
0.00814455
0.00804852
0.00797015
0.00793499
0.00789271
0.00794588
0.0080666
0.00819542
0.00829254
0.00829213
0.00810777
0.00762075
0.00643828
0.00390162
0.00427433
0.00731763
0.00838109
0.00874676
0.00881114
0.00868437
0.00843238
0.00812911
0.00785579
0.00767388
0.00755099
0.00773544
0.00808598
0.00844162
0.00871599
0.00884313
0.00875837
0.00834835
0.00723052
0.0041728
0.00425568
0.00755284
0.008535
0.00885501
0.00889035
0.00872535
0.00838636
0.00791374
0.00737473
0.00688129
0.00672947
0.00719963
0.00780593
0.00832992
0.00869977
0.00887987
0.00884068
0.00849084
0.00745982
0.00414493
0.00400379
0.00743589
0.00834814
0.00868442
0.00876982
0.00865541
0.00833128
0.00779622
0.00707862
0.00631933