/*--------------------------------*- C++ -*----------------------------------*\
  =========                 |
  \\      /  F ield         | OpenFOAM: The Open Source CFD Toolbox
   \\    /   O peration     | Website:  https://openfoam.org
    \\  /    A nd           | Version:  dev
     \\/     M anipulation  |
\*---------------------------------------------------------------------------*/
FoamFile
{
    version     2.0;
    format      ascii;
    class       surfaceScalarField;
    location    "50";
    object      phi;
}
// * * * * * * * * * * * * * * * * * * * * * * * * * * * * * * * * * * * * * //

dimensions      [1 0 -1 0 0 0 0];

internalField   nonuniform List<scalar> 
11200
(
-0.00784107
0.0156827
-0.00784108
-0.0156954
0.0165456
-0.00869119
-0.0209064
0.0165381
-0.0113274
-0.0236589
0.0165186
-0.0137664
-0.024148
0.0163783
-0.0158897
-0.0226011
0.0160986
-0.0176461
-0.0192341
0.015672
-0.0190396
-0.0142447
0.0150841
-0.0200741
-0.00787676
0.0143336
-0.0207022
-0.00073392
0.0135716
-0.0207152
0.00644768
0.0134586
-0.020641
0.0129221
0.0142186
-0.0206938
0.0180514
0.0149768
-0.0201069
0.0215437
0.0155543
-0.0190473
0.0231896
0.0159428
-0.0175894
0.0227959
0.0161643
-0.0157712
0.0201667
0.0162323
-0.0136035
0.0151345
0.0161615
-0.0111296
0.00753957
0.0160216
-0.00842659
0.014887
-0.00734689
-0.0058352
0.0273537
-0.0058352
-0.0121413
0.028018
-0.00516612
-0.016934
0.0278386
-0.00650786
-0.0197398
0.0275271
-0.00820301
-0.0205218
0.0270448
-0.00988484
-0.0194026
0.0263587
-0.0113798
-0.016567
0.0254313
-0.0125954
-0.0122359
0.0242475
-0.0134951
-0.00675184
0.0228449
-0.0139959
-0.00051639
0.0214433
-0.0141077
0.0056668
0.0212128
-0.0139381
0.0111436
0.0224759
-0.0137348
0.0155128
0.0238245
-0.0132175
0.0184146
0.0249753
-0.0123233
0.0196211
0.0258597
-0.0111239
0.0189603
0.0264849
-0.00966019
0.0163296
0.0268821
-0.00801936
0.0117768
0.0270673
-0.00635305
0.00574241
0.0270257
-0.00496941
0.026001
-0.00537097
-0.00363818
0.0346308
-0.00363819
-0.00874985
0.035584
-0.00245396
-0.0130342
0.0353486
-0.00322571
-0.0157926
0.0347842
-0.00449877
-0.0168434
0.0339457
-0.00585033
-0.0162108
0.0328137
-0.00708799
-0.0140211
0.0313274
-0.00808617
-0.0104686
0.0294684
-0.00877372
-0.00584231
0.0273233
-0.00910507
-0.000449316
0.0252385
-0.00918862
0.0049248
0.0248569
-0.00901861
0.0095345
0.0266595
-0.00879377
0.013098
0.0286868
-0.00842627
0.0153343
0.0305002
-0.00776164
0.0160551
0.0319576
-0.00681906
0.0151429
0.0330496
-0.00565287
0.0125834
0.0338152
-0.00437372
0.00854923
0.0342482
-0.00314675
0.00366793
0.0342396
-0.00233221
0.032895
-0.00322535
-0.00184626
0.0383241
-0.00184626
-0.00573718
0.0397399
-0.000264481
-0.00939634
0.0395389
-0.000530963
-0.0120045
0.0387596
-0.00136727
-0.0132956
0.0375925
-0.00235578
-0.0132055
0.0360448
-0.00332139
-0.0117725
0.0340023
-0.00410821
-0.00908496
0.0314152
-0.00463475
-0.00528518
0.0284381
-0.00491498
-0.000505314
0.0255538
-0.00509553
0.00436376
0.0249723
-0.00498485
0.00824417
0.0274582
-0.00467937
0.0109945
0.0302899
-0.0043537
0.0124963
0.0328493
-0.00385121
0.0126883
0.0348931
-0.00312779
0.0115432
0.0364425
-0.00224794
0.00913166
0.0375659
-0.00133929
0.00570042
0.0382248
-0.000545156
0.0019786
0.0381824
-0.000220466
0.0363635
-0.00148912
-0.000240925
0.0388069
-0.000240926
-0.00281023
0.040742
0.00156783
-0.00578595
0.0407017
0.00181328
-0.00826484
0.0397682
0.00147035
-0.00988262
0.038314
0.000896252
-0.0104392
0.0363737
0.000227507
-0.00985561
0.0337848
-0.00036621
-0.00807612
0.0304497
-0.000814116
-0.00502929
0.0265651
-0.00117401
-0.000641784
0.0227636
-0.00159752
0.00400256
0.0218893
-0.00156151
0.00731045
0.0252318
-0.00108173
0.00926657
0.0289961
-0.000662546
0.00996974
0.0323673
-0.000221346
0.00952805
0.0350249
0.000309812
0.00805413
0.0370233
0.000893137
0.00575012
0.0384741
0.001396
0.00295596
0.0393059
0.00171345
0.000472325
0.0391239
0.0015427
0.0367914
4.52478e-05
0.00128804
0.0362317
0.00128804
0.000203182
0.0386865
0.00314105
-0.00192802
0.0389846
0.00384878
-0.00421387
0.0380568
0.00399752
-0.00617764
0.0364161
0.00386174
-0.00749318
0.0341569
0.00353237
-0.0079358
0.0310733
0.00315404
-0.00723533
0.0269738
0.00277538
-0.00502015
0.0220219
0.00232797
-0.000858242
0.016963
0.00163858
0.00387296
0.0156691
0.00148887
0.00660028
0.0202663
0.00223814
0.00762141
0.0251957
0.00277917
0.00736657
0.0294474
0.00317469
0.00617192
0.0327241
0.00349545
0.00433501
0.0351089
0.00375145
0.00217943
0.0367941
0.00383584
0.000147463
0.0376516
0.00368671
-0.000966591
0.0371675
0.00307114
0.0343468
0.00147879
0.00276928
0.0306942
0.00276928
0.00333846
0.0335667
0.00455142
0.00239691
0.0343063
0.00562043
0.000565758
0.0336581
0.00623029
-0.00166154
0.0321404
0.00650325
-0.0038252
0.029848
0.00647274
-0.00552791
0.0265024
0.00627376
-0.00625612
0.0217153
0.00598667
-0.00524372
0.0155489
0.00546058
-0.00113953
0.00865649
0.00420239
0.00405183
0.00665928
0.00381847
0.00594642
0.0131507
0.00522094
0.00567029
0.019615
0.00585695
0.00421078
0.0247417
0.0061653
0.00213723
0.0284844
0.00631337
-2.62543e-05
0.0309709
0.00630172
-0.00181974
0.0325724
0.00601556
-0.0027797
0.0331819
0.00543019
-0.00236545
0.0323037
0.0044503
0.0291253
0.00285692
0.00420637
0.0222824
0.00420637
0.00659354
0.0252807
0.00589974
0.00727072
0.0263625
0.00726735
0.00650876
0.0261629
0.00825767
0.00461885
0.025164
0.00886675
0.00194057
0.0234313
0.00909527
-0.00115528
0.0205907
0.00900774
-0.00398233
0.0159077
0.00863483
-0.00516263
0.00885824
0.00787109
-0.00130757
-0.00103204
0.00583344
0.00392396
-0.0035505
0.00497801
0.00449421
0.00525685
0.0073237
0.00213694
0.0136382
0.00833418
-0.000866337
0.0189951
0.00875011
-0.00361133
0.0223858
0.00884393
-0.00555346
0.0243082
0.00860524
-0.00638032
0.0253859
0.00801381
-0.00584
0.0255741
0.00706811
-0.00372397
0.0244083
0.00578008
0.0212028
0.00419935
0.00552209
0.0112391
0.00552209
0.00989055
0.0137885
0.00712459
0.0127873
0.0147201
0.00874643
0.0140073
0.0148675
0.010076
0.0136224
0.0145515
0.010998
0.0118012
0.0137805
0.0114725
0.00861081
0.0122959
0.0114856
0.00407515
0.00945899
0.0109847
-5.50242e-05
0.00348978
0.00949876
-0.000467877
-0.00659649
0.00597678
0.000914982
-0.00936551
0.00443156
-0.00195911
-0.000166738
0.00829766
-0.00672909
0.00793553
0.0104729
-0.0102394
0.0114183
0.0110875
-0.0122318
0.0132463
0.0111323
-0.0127486
0.0141295
0.010696
-0.011674
0.014489
0.00982286
-0.00899817
0.014343
0.008556
-0.00497867
0.0133819
0.00700764
0.0107637
0.00546106
0.00561985
0.00561985
0.0122694
0.00713959
0.0180069
0.00898333
0.0222606
0.0106145
0.0249632
0.0118495
0.0261159
0.0126283
0.0255567
0.0128556
0.0226953
0.0123208
0.0156014
0.0105839
0.00276688
0.00623812
-0.0109901
0.00439133
-0.0202334
0.00907674
-0.0237366
0.011439
-0.024629
0.012311
-0.023612
0.0122298
-0.0210209
0.0115389
-0.0169145
0.0103832
-0.0114113
0.0088404
-0.00512175
0.0070929
0.00564241
-0.00869119
0.0165456
-0.0156954
-0.0163653
0.015348
-0.0163653
-0.0218132
0.0136385
-0.0195183
-0.0248137
0.0121128
-0.0228792
-0.0255157
0.0106607
-0.025849
-0.0241419
0.0092033
-0.0282237
-0.0208929
0.00770095
-0.0299901
-0.0159252
0.00613443
-0.0311769
-0.00937856
0.00455257
-0.0318021
-0.00119228
0.00308313
-0.0319854
0.00725974
0.00286165
-0.0319555
0.0141364
0.00428616
-0.0318574
0.0193671
0.00589922
-0.0312377
0.0228009
0.0075033
-0.0299852
0.0242877
0.00902122
-0.0280981
0.0236636
0.0104663
-0.0256141
0.0207476
0.0118756
-0.0225638
0.0154413
0.0133178
-0.0191417
0.00805174
0.0148656
-0.0159028
0.015745
-0.01504
-0.00516612
0.028018
-0.0121413
-0.0105865
0.0261887
-0.0105865
-0.015201
0.0236532
-0.0119083
-0.0181971
0.0210815
-0.0141759
-0.0193668
0.0184954
-0.0165503
-0.0187295
0.0158319
-0.018646
-0.0164009
0.0130386
-0.020262
-0.012491
0.0101155
-0.0213864
-0.0071935
0.00718407
-0.0219253
-0.000865104
0.0046719
-0.0220253
0.00553146
0.00431319
-0.0217866
0.0109541
0.00660651
-0.0214782
0.0149764
0.00951979
-0.0208609
0.0174101
0.0124767
-0.0197309
0.0181503
0.0152951
-0.0181385
0.0170994
0.0179521
-0.0160955
0.0142593
0.0204828
-0.0137868
0.00986038
0.0229283
-0.0115649
0.00473737
0.0252213
-0.0102021
0.0266378
-0.0115262
-0.00245396
0.035584
-0.00874985
-0.00609869
0.0334783
-0.00609869
-0.00977528
0.030477
-0.006373
-0.0125489
0.0271913
-0.00783516
-0.0140146
0.0237386
-0.0096281
-0.0140419
0.020092
-0.011321
-0.0126269
0.0162055
-0.0126684
-0.0098209
0.0120892
-0.0135537
-0.00575267
0.00794765
-0.0139372
-0.000790385
0.00450941
-0.0139887
0.00426672
0.00396632
-0.0137292
0.00845179
0.00701775
-0.0133904
0.0113551
0.0110915
-0.0129016
0.0128694
0.0152454
-0.012045
0.0129569
0.0191867
-0.0107985
0.0116323
0.0228493
-0.00922574
0.00903712
0.0262517
-0.00754776
0.00557691
0.0293938
-0.00615212
0.00216922
0.0321184
-0.00582154
0.0337675
-0.00818536
-0.00026448
0.0397399
-0.00573718
-0.00230849
0.0375665
-0.00230849
-0.00501656
0.0343878
-0.00173367
-0.00745778
0.0306896
-0.00242441
-0.00914597
0.0266794
-0.00360853
-0.00983184
0.0223222
-0.00486587
-0.00939834
0.0175851
-0.00592149
-0.00776562
0.0124289
-0.00660738
-0.00486965
0.00707778
-0.00694129
-0.000850609
0.00249853
-0.0071039
0.0034063
0.00165254
-0.0069282
0.00654006
0.00572984
-0.00652545
0.00834116
0.0110198
-0.00608336
0.00891254
0.0162514
-0.00542887
0.00835568
0.0211054
-0.00448986
0.00681317
0.0255198
-0.00337611
0.00454075
0.0295006
-0.00231578
0.00201351
0.0330523
-0.0016764
0.000122896
0.0359448
-0.00215601
0.0376414
-0.00523964
0.00156782
0.040742
-0.00281023
0.00100793
0.0386867
0.00100793
-0.000682911
0.0356012
0.00229088
-0.00270773
0.0318406
0.00234421
-0.0045623
0.0276332
0.001797
-0.00591196
0.0228884
0.00101091
-0.00653207
0.017591
0.000247861
-0.00612258
0.0115385
-0.000333304
-0.00436264
0.0049243
-0.00078058
-0.00096396
-0.00126308
-0.00123473
0.00288466
-0.00256942
-0.00118833
0.00509689
0.00304583
-0.000610072
0.00578759
0.00971733
-5.09232e-05
0.00534573
0.0159631
0.0005087
0.00413438
0.0214652
0.00116129
0.00241172
0.0263217
0.00181386
0.000522067
0.0305278
0.00225851
-0.00104824
0.034148
0.0021883
-0.00155451
0.0369539
0.00104019
0.0385287
-0.00239601
0.00314104
0.0386865
0.000203181
0.00400875
0.0369518
0.00400875
0.00342255
0.034241
0.00579555
0.00196249
0.0307894
0.00650895
6.89806e-05
0.0267975
0.00659105
-0.00189981
0.0221374
0.00625219
-0.00358256
0.0167
0.00572779
-0.00445238
0.0100192
0.00516453
-0.00386832
0.00222656
0.00444162
-0.00104504
-0.00590685
0.003459
0.00246948
-0.00781747
0.00322231
0.0037909
-0.000341324
0.00430384
0.00331174
0.00781577
0.00515988
0.00182521
0.014903
0.00572135
-3.32124e-05
0.02066
0.00615911
-0.0018422
0.025482
0.00640025
-0.00323263
0.0294936
0.00626063
-0.00378501
0.0328181
0.00556928
-0.00296486
0.0352688
0.00393662
0.0365383
0.000504977
0.00455142
0.0335667
0.00333845
0.00685163
0.0323521
0.00685163
0.00745933
0.0302701
0.00898419
0.0067721
0.0274665
0.0102408
0.00513852
0.0240971
0.0108375
0.00282849
0.0200526
0.0108677
0.00020533
0.0150932
0.0105038
-0.00209643
0.00851591
0.0097918
-0.00289643
-2.93643e-05
0.00851656
-0.000977596
-0.0100487
0.00642534
0.00181622
-0.0125592
0.00576627
0.00200951
-0.00334137
0.00802771
0.000172261
0.00607209
0.00943797
-0.00229315
0.013318
0.0102158
-0.00457677
0.0187054
0.0105518
-0.00620694
0.0229359
0.0104782
-0.00690795
0.0263373
0.00987323
-0.00636483
0.0290341
0.00867151
-0.00422511
0.0308861
0.00669393
0.0316718
0.00349908
0.00589975
0.0252807
0.00659354
0.00967084
0.0248106
0.00967084
0.011667
0.0235253
0.0120166
0.0120979
0.0216064
0.0136875
0.0111611
0.0192148
0.0146863
0.00903597
0.0162636
0.0150097
0.00598485
0.0124427
0.0147097
0.00244537
0.00697061
0.0137198
-0.000220865
-0.00119986
0.0117079
-0.000506031
-0.011977
0.00804676
8.3383e-05
-0.0149199
0.00674906
-0.00160645
-0.00489581
0.010568
-0.00481728
0.00463175
0.0129855
-0.00788199
0.0109663
0.0141668
-0.0100898
0.0152465
0.0145109
-0.0111126
0.0183646
0.0141997
-0.0107802
0.0207819
0.0132373
-0.00894124
0.0226183
0.0116456
-0.00543635
0.0237204
0.00944151
0.0238355
0.0066
0.00712459
0.0137885
0.00989055
0.0124237
0.0142132
0.0124237
0.0161535
0.0136993
0.0148434
0.0182757
0.0127703
0.0167906
0.0188255
0.0115754
0.0180881
0.0178536
0.0100553
0.0186532
0.015381
0.00797648
0.0184248
0.0114276
0.00469117
0.0172178
0.00641523
-0.00113974
0.0144512
0.000861408
-0.00979237
0.00934589
-0.00429628
-0.0126784
0.00734754
-0.00941717
-0.00412615
0.012649
-0.0135367
0.00307791
0.0161464
-0.0162639
0.0071414
0.0176399
-0.0174072
0.00953027
0.0179923
-0.0169925
0.0111459
0.0175004
-0.0150172
0.0123504
0.0162796
-0.0115026
0.0132297
0.0144306
-0.00654483
0.0136326
0.0121384
0.0129917
0.00976072
0.00713959
0.0122694
0.0142465
0.0142465
0.0202887
0.0166411
0.0249344
0.0187398
0.0281127
0.0202471
0.0297638
0.021033
0.0296464
0.02095
0.0269358
0.019723
0.0193653
0.0170149
0.00399852
0.0118126
-0.013682
0.00939345
-0.0237739
0.0150426
-0.0276808
0.0184241
-0.0282067
0.0199787
-0.0267084
0.0202622
-0.0236314
0.0196083
-0.0191121
0.0182148
-0.0132784
0.0162369
-0.00652577
0.0139734
0.0121088
-0.0113274
0.0165381
-0.0209064
-0.0195183
0.0136385
-0.0218132
-0.0248478
0.0106584
-0.0248478
-0.0275044
0.00798935
-0.0282124
-0.0278056
0.00554698
-0.0310952
-0.0260626
0.00323025
-0.0331974
-0.0224989
0.000973706
-0.034528
-0.0172049
-0.00128656
-0.0351848
-0.0101915
-0.00354885
-0.0352672
-0.0014724
-0.00559812
-0.0351071
0.00764345
-0.00594284
-0.0351293
0.0151639
-0.00396528
-0.0354134
0.0208579
-0.00161148
-0.035321
0.0246681
0.000754814
-0.034551
0.0265345
0.00307941
-0.0330447
0.026292
0.0054198
-0.030792
0.0236899
0.00783594
-0.0277983
0.0184876
0.0104186
-0.0243585
0.0106121
0.0132244
-0.0212521
0.0158016
-0.0202297
-0.00650786
0.0278386
-0.016934
-0.0119083
0.0236532
-0.015201
-0.016176
0.0191935
-0.016176
-0.0188917
0.0148875
-0.0183586
-0.0199151
0.0107723
-0.0207525
-0.0192394
0.00674272
-0.0228344
-0.0169458
0.00269684
-0.0242789
-0.0130448
-0.00140844
-0.0251657
-0.00760243
-0.00545621
-0.0254604
-0.00102125
-0.00885386
-0.0253509
0.0056506
-0.00936604
-0.0250356
0.0112777
-0.00623971
-0.0248313
0.0153431
-0.00212436
-0.0244137
0.0177645
0.00211128
-0.0235091
0.0185455
0.00625142
-0.022092
0.0176339
0.0103187
-0.0200832
0.0150648
0.0143958
-0.017778
0.0110157
0.0185677
-0.0156652
0.00595914
0.0227643
-0.0146857
0.0265152
-0.0162806
-0.00322571
0.0353486
-0.0130342
-0.006373
0.030477
-0.00977528
-0.00942317
0.0252936
-0.00942317
-0.0118409
0.0200705
-0.0106007
-0.0132459
0.0148838
-0.0123347
-0.0134375
0.00965297
-0.0140398
-0.0123036
0.00427461
-0.0153802
-0.00978269
-0.00128089
-0.0162023
-0.0058675
-0.00680352
-0.0165052
-0.000913523
-0.0113631
-0.0164336
0.0041469
-0.0121002
-0.0160556
0.00821697
-0.00800472
-0.0156957
0.0108713
-0.00244071
-0.0152398
0.0121194
0.00327755
-0.0144596
0.0120493
0.00879594
-0.0132732
0.0107778
0.0140906
-0.0117264
0.00852466
0.0192405
-0.0101396
0.0056828
0.0243077
-0.0090505
0.0028097
0.0291883
-0.00937253
0.0335672
-0.0124276
-0.000530964
0.0395389
-0.00939634
-0.00173367
0.0343878
-0.00501656
-0.00358727
0.0290008
-0.00358727
-0.00557007
0.0234308
-0.00380193
-0.00720252
0.0177054
-0.00479775
-0.00815726
0.011782
-0.00604027
-0.00817705
0.00551208
-0.00713929
-0.00706058
-0.0011885
-0.00781635
-0.00461836
-0.00805378
-0.00813338
-0.00093002
-0.0139349
-0.00822062
0.00300109
-0.0150027
-0.00795702
0.00571936
-0.00975327
-0.00749533
0.00703426
-0.00281244
-0.00702671
0.00715718
0.0041334
-0.00640782
0.00632953
0.0106077
-0.00547418
0.00482871
0.0166385
-0.00442327
0.00299114
0.0223389
-0.00357672
0.00129276
0.0277488
-0.00341918
0.000261841
0.032823
-0.00475973
0.0374516
-0.008862
0.00181328
0.0407017
-0.00578595
0.00229088
0.0356012
-0.000682912
0.00159086
0.0304009
0.00159086
0.000165227
0.0249523
0.00224834
-0.00153696
0.0192235
0.00198105
-0.00313276
0.0131452
0.00124347
-0.00428135
0.00649126
0.000417225
-0.00456869
-0.00102162
-0.000212908
-0.00357219
-0.00906499
-0.00076595
-0.00094676
-0.0165055
-0.00128968
0.00211984
-0.0180109
-0.00124688
0.00357019
-0.0113385
-0.00047529
0.0035596
-0.00306619
0.000213325
0.00258158
0.00482284
0.000797204
0.00110293
0.0117709
0.00147673
-0.000494254
0.0180012
0.00204825
-0.00182322
0.0237213
0.00220509
-0.00244576
0.0290137
0.00154604
-0.00191308
0.033905
-0.000574263
0.0384746
-0.00533168
0.00384878
0.0389846
-0.00192803
0.00579555
0.034241
0.00342255
0.00622089
0.0295506
0.00622089
0.00549509
0.0246262
0.00756101
0.00396908
0.0193962
0.0079445
0.00196186
0.0137096
0.00769509
-0.000164275
0.00727352
0.00707171
-0.00184481
-0.000444158
0.00626764
-0.00234264
-0.00933076
0.00520522
-0.000845432
-0.0184347
0.00389095
0.00125271
-0.0204787
0.00359192
0.00139355
-0.0122322
0.00505668
2.98467e-05
-0.00280355
0.00626095
-0.00194329
0.00546621
0.00705115
-0.00388166
0.0122936
0.00757488
-0.00536374
0.0181614
0.0077222
-0.00606732
0.0233967
0.00728894
-0.00565478
0.0281718
0.00599887
-0.00376912
0.0325633
0.003393
0.0367833
-0.00157239
0.00562043
0.0343063
0.00239691
0.00898419
0.0302701
0.00745932
0.0105503
0.0264188
0.0105503
0.010645
0.0223793
0.0123933
0.00954854
0.0180472
0.0132832
0.00749619
0.0132404
0.0133895
0.00478279
0.00761845
0.0128725
0.00190604
0.000510038
0.0117145
-0.00021023
-0.00858103
0.00988316
-0.000517052
-0.0189837
0.00728109
-0.000150669
-0.0215729
0.00649391
-0.00156936
-0.01198
0.00919416
-0.00419049
-0.00197983
0.0112355
-0.00684049
0.00589582
0.0124363
-0.00891574
0.0119643
0.0129564
-0.0100501
0.0169543
0.01282
-0.0100126
0.0212941
0.0119387
-0.0085504
0.0251965
0.010185
-0.00536362
0.0287692
0.00730179
0.0323067
0.00261258
0.00726735
0.0263625
0.00727072
0.0120166
0.0235253
0.011667
0.0148054
0.0208417
0.0148054
0.0159367
0.017984
0.016952
0.0156108
0.0148858
0.018174
0.0139673
0.0113893
0.0185047
0.0111667
0.00714888
0.0179801
0.0074988
0.00140481
0.0164932
0.00361816
-0.00679052
0.0137982
0.000225142
-0.0172226
0.00967857
-0.00264061
-0.0201919
0.00823372
-0.00618992
-0.0102953
0.0124327
-0.00981093
-0.000899706
0.0155266
-0.0127272
0.00573349
0.0172456
-0.0144885
0.0104166
0.0178203
-0.0149231
0.0140736
0.0175152
-0.0139161
0.0171758
0.016349
-0.0113093
0.0199194
0.0143164
-0.00684251
0.0223673
0.0113771
0.0247651
0.00729976
0.00874643
0.0147201
0.0127873
0.0148434
0.0136993
0.0161535
0.0190666
0.0123959
0.0190666
0.0216224
0.0109301
0.0212894
0.022609
0.00931849
0.0226692
0.022053
0.00746887
0.0231302
0.0198951
0.00513092
0.022601
0.015938
0.00167696
0.0209031
0.00985139
-0.00383333
0.0175808
0.00158389
-0.0119187
0.0123095
-0.00676407
-0.0146916
0.0101951
-0.0134913
-0.00654756
0.0156286
-0.0179
0.000128072
0.0195277
-0.0203919
0.00431489
0.0215507
-0.0211443
0.00694954
0.0222121
-0.0203023
0.00889426
0.0218382
-0.0179011
0.0105029
0.0205517
-0.0139015
0.0118969
0.0184541
-0.00816087
0.0130501
0.0157155
0.0137795
0.0125861
0.00898333
0.0180069
0.0166411
0.0202887
0.0228393
0.0228393
0.0275406
0.0249692
0.0307423
0.0263644
0.0323599
0.0268848
0.0320461
0.0263952
0.0287293
0.0247171
0.0203885
0.0215227
0.00426082
0.0160217
-0.0144149
0.0133775
-0.0252823
0.0193627
-0.0298536
0.0231237
-0.0306558
0.0250961
-0.0292384
0.0257948
-0.02615
0.0254146
-0.0215721
0.0241402
-0.0155772
0.0221393
-0.00828827
0.019735
0.0176004
-0.0137664
0.0165186
-0.0236589
-0.0228792
0.0121128
-0.0248137
-0.0282124
0.00798935
-0.0275044
-0.0303938
0.00436244
-0.0303938
-0.0300585
0.00121136
-0.0326423
-0.0276842
-0.00157915
-0.033993
-0.0236153
-0.00422473
-0.0343725
-0.0179904
-0.00687618
-0.0339338
-0.0107212
-0.00950061
-0.0330363
-0.00173912
-0.0117981
-0.0322917
0.00781579
-0.0122541
-0.0324309
0.0158176
-0.0100314
-0.0333847
0.0219954
-0.0072441
-0.0342554
0.0263741
-0.00442194
-0.0345084
0.0288799
-0.00165829
-0.0338929
0.0292468
0.00118233
-0.0323419
0.0270841
0.00431369
-0.02995
0.0218559
0.00784197
-0.0269729
0.0130592
0.0117702
-0.0242262
0.0158427
-0.0230136
-0.00820301
0.0275271
-0.0197398
-0.0141759
0.0210815
-0.0181971
-0.0183586
0.0148875
-0.0188917
-0.0207711
0.00918723
-0.0207711
-0.0214809
0.00401925
-0.0228508
-0.020547
-0.00079695
-0.0245507
-0.0180107
-0.00542615
-0.0256137
-0.013911
-0.010066
-0.0260755
-0.00817975
-0.0146406
-0.0260515
-0.00109085
-0.0184821
-0.0257557
0.00610388
-0.0191208
-0.0253637
0.0120586
-0.0155658
-0.0252517
0.0163517
-0.0108204
-0.0251307
0.0190154
-0.00594681
-0.0246482
0.0200472
-0.0011573
-0.0236251
0.0194378
0.00371926
-0.0220112
0.0171637
0.00884881
-0.0200394
0.0132077
0.0143916
-0.0182592
0.00761014
0.0202876
-0.017606
0.0262665
-0.0190945
-0.00449877
0.0347842
-0.0157926
-0.00783516
0.0271913
-0.0125489
-0.0106007
0.0200705
-0.0118409
-0.0126961
0.0133778
-0.0126961
-0.0138909
0.00709333
-0.0142142
-0.0140071
0.0010001
-0.0157207
-0.0128613
-0.00503539
-0.0169168
-0.0103158
-0.0111623
-0.0176515
-0.00623734
-0.0172716
-0.0179526
-0.000888653
-0.0223942
-0.0178702
0.00452728
-0.0232728
-0.0173197
0.00872473
-0.0186445
-0.0168146
0.0113781
-0.012366
-0.0163478
0.012628
-0.00596273
-0.0156938
0.0126187
0.000279402
-0.0147009
0.0115448
0.00647006
-0.0134035
0.00960681
0.0127183
-0.0120714
0.00705617
0.0192304
-0.0113389
0.00402677
0.0260059
-0.0120616
0.0330531
-0.0151875
-0.00136727
0.0387596
-0.0120045
-0.00242441
0.0306896
-0.00745778
-0.00380193
0.0234308
-0.00557007
-0.00537291
0.0165196
-0.00537291
-0.00681099
0.00984515
-0.00611157
-0.00774862
0.003125
-0.00722761
-0.00788457
-0.00378653
-0.00825224
-0.00690443
-0.011003
-0.00895584
-0.00454517
-0.0184172
-0.00934712
-0.00083068
-0.0248755
-0.00945384
0.00306744
-0.0260831
-0.00904496
0.00564092
-0.0203006
-0.00841286
0.00675523
-0.0126473
-0.00785984
0.00672568
-0.00508796
-0.00725317
0.00589272
0.00208951
-0.00645146
0.00457465
0.00893863
-0.00557391
0.00313479
0.0155969
-0.00501559
0.00190673
0.0223287
-0.00528948
0.00104409
0.0292308
-0.00712206
0.0367087
-0.0114735
0.00147035
0.0397682
-0.00826484
0.00234421
0.0318406
-0.00270773
0.00224834
0.0249523
0.000165227
0.00132214
0.0183721
0.00132214
-0.000101559
0.0118861
0.00136385
-0.00164594
0.00517142
0.000741431
-0.00291959
-0.00201352
-8.21486e-05
-0.00346453
-0.00984183
-0.000829148
-0.00284531
-0.0183088
-0.00149362
-0.000740161
-0.0261983
-0.00207215
0.00170702
-0.0278195
-0.00195776
0.0026739
-0.0207326
-0.00101025
0.00230835
-0.0118729
-0.00019561
0.00114157
-0.00359054
0.000466519
-0.000315904
0.00392991
0.00109375
-0.00166013
0.0108112
0.00151992
-0.00251826
0.017299
0.0013612
-0.0025582
0.0237094
0.000205303
-0.00161853
0.0302472
-0.00253025
0.0375672
-0.00780859
0.00399752
0.0380568
-0.00421387
0.00650895
0.0307894
0.00196249
0.00756101
0.0246262
0.00549509
0.00736312
0.018768
0.00736312
0.00621143
0.012925
0.00805735
0.00437472
0.00679532
0.007908
0.00223968
-1.35637e-05
0.00720688
0.000316925
-0.00786705
0.00621566
-0.000826732
-0.0169101
0.0049502
-0.000503885
-0.0261401
0.00350989
0.00027732
-0.0282424
0.0032335
-0.000445104
-0.0198401
0.00488661
-0.00219445
-0.0101628
0.00630024
-0.00425861
-0.0017207
0.00724551
-0.00606296
0.00550142
0.00780777
-0.00720916
0.0118283
0.0078513
-0.00741955
0.0176783
0.00712013
-0.00640757
0.0233751
0.00532137
-0.0039614
0.029204
0.00199022
0.0358804
-0.00384669
0.00623028
0.0336581
0.000565758
0.0102408
0.0274665
0.0067721
0.0123933
0.0223793
0.010645
0.0129861
0.0175828
0.0129861
0.0122922
0.0127632
0.0141393
0.0105249
0.0076409
0.0143114
0.00792821
0.00180443
0.0136514
0.00490213
-0.00538516
0.0122588
0.00200173
-0.0143131
0.0101867
-2.72429e-05
-0.0243661
0.00753598
-0.00160522
-0.026922
0.00675142
-0.0041733
-0.0175828
0.00950492
-0.00710123
-0.00776767
0.0117683
-0.00972668
0.000167674
0.0131735
-0.0115837
0.00647703
0.0138381
-0.0123568
0.011784
0.0136376
-0.011854
0.0166057
0.0125088
-0.00983156
0.0212523
0.0102856
-0.00600571
0.0260306
0.00664974
0.0316706
0.000817084
0.00825767
0.0261629
0.00650876
0.0136875
0.0216064
0.0120979
0.016952
0.017984
0.0159367
0.0184639
0.0145596
0.0184639
0.0184713
0.0110924
0.0198378
0.0171048
0.00736474
0.0201476
0.0144509
0.00298821
0.0194506
0.0106629
-0.00280266
0.0176989
0.00595637
-0.0106311
0.0148229
0.00076789
-0.0203745
0.0108755
-0.00419002
-0.0231977
0.00946717
-0.00897899
-0.0138533
0.0134922
-0.0129495
-0.00495351
0.0166831
-0.0157785
0.00164403
0.0185985
-0.0172929
0.00645798
0.019354
-0.0174186
0.0103493
0.0190759
-0.0160536
0.0138161
0.017774
-0.0129913
0.0171148
0.015392
-0.0078554
0.0204762
0.011796
0.0245499
0.00656555
0.010076
0.0148675
0.0140073
0.0167906
0.0127703
0.0182757
0.0212894
0.0109301
0.0216224
0.0240025
0.00913404
0.0240025
0.0251142
0.00729154
0.0253589
0.0246491
0.00528515
0.0256753
0.0224625
0.00285616
0.02492
0.018251
-0.000601515
0.0229139
0.0114732
-0.00576561
0.0194932
0.0019849
-0.0131183
0.0145417
-0.00782978
-0.0156633
0.0124753
-0.0154952
-0.00817146
0.0176123
-0.0203441
-0.0020292
0.0214524
-0.0228973
0.00205656
0.0236916
-0.0235887
0.00478517
0.0245767
-0.0226421
0.006891
0.0243502
-0.0200978
0.00872848
0.0230954
-0.0158349
0.0104449
0.0208616
-0.00949015
0.0121185
0.017729
0.0138906
0.0137558
0.0106145
0.0222606
0.0187398
0.0249344
0.0249692
0.0275406
0.0295365
0.0295365
0.0325202
0.0306727
0.0338356
0.030855
0.0330833
0.0300041
0.0292021
0.0279972
0.0203965
0.0245629
0.00427191
0.0190281
-0.0142955
0.0162816
-0.0254359
0.0223318
-0.0305866
0.0262454
-0.0319587
0.028525
-0.0309061
0.0295278
-0.028063
0.0294628
-0.0236298
0.0284358
-0.0176098
0.0265646
-0.00986972
0.0241139
0.0216218
-0.0158897
0.0163783
-0.024148
-0.025849
0.0106607
-0.0255157
-0.0310952
0.00554698
-0.0278056
-0.0326423
0.00121136
-0.0300585
-0.0315083
-0.00226824
-0.0315083
-0.028417
-0.0051869
-0.0318977
-0.0237876
-0.00792435
-0.0310778
-0.0178491
-0.0106448
-0.0292276
-0.0106364
-0.0132778
-0.0269716
-0.00208869
-0.0154541
-0.0253859
0.00730265
-0.0160488
-0.0257743
0.0155873
-0.0139101
-0.02776
0.0222883
-0.0109952
-0.0299619
0.0273128
-0.00803043
-0.0315032
0.0305298
-0.00514681
-0.0319638
0.0316439
-0.00216775
-0.0312889
0.0300589
0.00129059
-0.0296564
0.0248737
0.00550825
-0.0272966
0.015207
0.0103971
-0.0249572
0.0157614
-0.0235685
-0.00988484
0.0270448
-0.0205218
-0.0165503
0.0184954
-0.0193668
-0.0207525
0.0107723
-0.0199151
-0.0228508
0.00401925
-0.0214809
-0.0231223
-0.00172516
-0.0231223
-0.0217961
-0.00671189
-0.0243518
-0.0189653
-0.011409
-0.0249596
-0.014604
-0.0161006
-0.0249806
-0.00860822
-0.0206802
-0.0246445
-0.00110182
-0.0245019
-0.0242139
0.0065163
-0.0252718
-0.0237585
0.0127445
-0.0217042
-0.0236858
0.0173143
-0.0168094
-0.0238864
0.0202825
-0.0117813
-0.0238657
0.0216889
-0.00686269
-0.0233159
0.0214903
-0.0017991
-0.0221815
0.0195124
0.00388723
-0.0206586
0.0155354
0.0104422
-0.0192166
0.00926203
0.0178138
-0.0187497
0.0258451
-0.0199165
-0.00585033
0.0339457
-0.0168434
-0.0096281
0.0237386
-0.0140146
-0.0123347
0.0148838
-0.0132459
-0.0142142
0.00709333
-0.0138909
-0.0151745
0.000195404
-0.0151745
-0.0150654
-0.00608217
-0.0164595
-0.0137716
-0.0120872
-0.0175321
-0.0110567
-0.0181494
-0.0183173
-0.00665954
-0.0241931
-0.0188365
-0.000722716
-0.0293477
-0.0189609
0.00515859
-0.0303408
-0.0181318
0.00953211
-0.0256557
-0.0172365
0.0122738
-0.0193031
-0.0165958
0.0136332
-0.012844
-0.0159905
0.0138307
-0.0065659
-0.0151952
0.0129941
-0.000177853
-0.0141884
0.011272
0.00667096
-0.0131332
0.00878788
0.01424
-0.0126529
0.00533967
0.0226841
-0.0134839
0.032265
-0.0162679
-0.00235578
0.0375925
-0.0132956
-0.00360853
0.0266794
-0.00914597
-0.00479775
0.0177054
-0.00720252
-0.00611157
0.00984515
-0.00681099
-0.0073464
0.00266502
-0.0073464
-0.00813638
-0.00423041
-0.00828941
-0.00816416
-0.0110491
-0.00926254
-0.00709739
-0.0180588
-0.0101132
-0.00457946
-0.0252886
-0.0107695
-0.000582313
-0.0317466
-0.011052
0.0034506
-0.0330425
-0.0103763
0.0060035
-0.027235
-0.00938657
0.00708882
-0.0196402
-0.00860816
0.00710539
-0.0121565
-0.00795736
0.00639589
-0.00502148
-0.00728649
0.00527423
0.00200868
-0.00663891
0.00408763
0.00916653
-0.00632471
0.00304567
0.0168219
-0.0068296
0.00200009
0.0253694
-0.00876192
0.0355824
-0.012791
0.000896251
0.038314
-0.00988262
0.001797
0.0276332
-0.00456231
0.00198105
0.0192235
-0.00153696
0.00136385
0.0118861
-0.000101559
0.000182174
0.00502839
0.000182174
-0.00118756
-0.001837
-0.000282228
-0.00233319
-0.00891481
-0.00107081
-0.00284949
-0.0164346
-0.00193704
-0.00230946
-0.0245568
-0.00276548
-0.000423944
-0.0323105
-0.00339386
0.0016512
-0.033973
-0.00310246
0.00233494
-0.0269765
-0.00195257
0.00185553
-0.0183548
-0.00100169
0.000740147
-0.0102792
-0.000295442
-0.000575725
-0.00284971
0.000237807
-0.00169582
0.00418213
0.000466522
-0.00226074
0.0110462
4.64464e-05
-0.00203169
0.0182028
-0.00140472
-0.00106547
0.0262008
-0.00432792
0.0361564
-0.00944805
0.00386174
0.0364161
-0.00617764
0.00659105
0.0267975
6.898e-05
0.0079445
0.0193962
0.00396908
0.00805735
0.012925
0.00621143
0.00716981
0.00680357
0.00716981
0.0055556
0.000546236
0.00713909
0.00358914
-0.00619604
0.00645466
0.00168598
-0.0136979
0.00538218
0.000278425
-0.0222544
0.00405538
-0.000115954
-0.0310789
0.00267263
-0.000224841
-0.0331463
0.00251552
-0.0014712
-0.025062
0.00421836
-0.00336278
-0.015826
0.00566305
-0.00533221
-0.00769299
0.00662874
-0.00695414
-0.000552057
0.0071321
-0.00786475
0.00591155
0.00703256
-0.00778772
0.0120446
0.00604478
-0.00648921
0.0183462
0.0038796
-0.00383211
0.0253693
0.000164798
0.0342986
-0.00582079
0.00650325
0.0321404
-0.00166154
0.0108375
0.0240971
0.00513852
0.0132832
0.0180472
0.00954854
0.0141393
0.0127632
0.0122922
0.0136822
0.00771797
0.0136822
0.0121053
0.00251826
0.0139165
0.00966284
-0.00332001
0.0132179
0.00666434
-0.0102342
0.0117938
0.00341122
-0.0185873
0.00977279
0.000410235
-0.0279073
0.00736526
-0.00235645
-0.0303255
0.00669724
-0.00559121
-0.0216033
0.00928101
-0.0086851
-0.0124077
0.011444
-0.0112368
-0.00480273
0.0128351
-0.0129115
0.00148946
0.0134714
-0.0134704
0.00689606
0.0132121
-0.0127232
0.0119502
0.0118562
-0.0104221
0.0170807
0.00925033
-0.00628103
0.0227959
0.0050823
0.0302253
-0.0013904
0.00886676
0.025164
0.00461885
0.0146863
0.0192148
0.0111611
0.018174
0.0148858
0.0156108
0.0198378
0.0110924
0.0184713
0.0199765
0.00744094
0.0199765
0.0187187
0.00364713
0.0202769