/*--------------------------------*- C++ -*----------------------------------*\
  =========                 |
  \\      /  F ield         | OpenFOAM: The Open Source CFD Toolbox
   \\    /   O peration     | Website:  https://openfoam.org
    \\  /    A nd           | Version:  dev
     \\/     M anipulation  |
\*---------------------------------------------------------------------------*/
FoamFile
{
    version     2.0;
    format      ascii;
    class       volVectorField;
    location    "50";
    object      U;
}
// * * * * * * * * * * * * * * * * * * * * * * * * * * * * * * * * * * * * * //

dimensions      [0 1 -1 0 0 0 0];

internalField   nonuniform List<vector> 
4000
(
(-0.0222574 0.0470669 -0.0222574)
(-0.0425123 0.045122 -0.0264202)
(-0.0660756 0.0417379 -0.0353339)
(-0.0790778 0.0391953 -0.0433491)
(-0.0842687 0.0368589 -0.0505051)
(-0.0821019 0.0344603 -0.056818)
(-0.0732758 0.0318126 -0.0623681)
(-0.0584152 0.0287767 -0.0671968)
(-0.0387963 0.025313 -0.0711239)
(-0.0187273 0.0218286 -0.0734831)
(0.013514 0.0213204 -0.0733095)
(0.034143 0.0247875 -0.0711504)
(0.0541267 0.0283217 -0.0672778)
(0.0694179 0.0314083 -0.0623548)
(0.0786257 0.0340483 -0.0566303)
(0.081116 0.0363719 -0.0501513)
(0.0762763 0.0385673 -0.0428743)
(0.0637503 0.0408843 -0.0347622)
(0.0410102 0.0438449 -0.0256657)
(0.0213007 0.0449812 -0.0207927)
(-0.0157939 0.0744672 -0.0157939)
(-0.031235 0.0768035 -0.0167827)
(-0.0527062 0.0766889 -0.0226104)
(-0.0652648 0.0763387 -0.0285775)
(-0.0711831 0.0754525 -0.034277)
(-0.0703284 0.073909 -0.0395055)
(-0.0632363 0.0715989 -0.0441262)
(-0.0504964 0.0684256 -0.0480489)
(-0.0332091 0.0644184 -0.0510328)
(-0.015118 0.0601078 -0.0528889)
(0.0113743 0.0595244 -0.0524721)
(0.0294941 0.0635891 -0.0504932)
(0.04679 0.0675443 -0.0474814)
(0.0597023 0.0706612 -0.0435487)
(0.0670553 0.0728356 -0.038931)
(0.0682555 0.0741676 -0.0337384)
(0.0628272 0.074772 -0.0281043)
(0.0509482 0.0747394 -0.0221846)
(0.0305192 0.0742185 -0.016243)
(0.0154274 0.0708123 -0.0144704)
(-0.00971929 0.105914 -0.0097193)
(-0.0205713 0.10956 -0.00939944)
(-0.039741 0.109428 -0.0135531)
(-0.0514497 0.108292 -0.0181775)
(-0.0578878 0.106223 -0.0227248)
(-0.0583973 0.10319 -0.0269556)
(-0.0533092 0.0990657 -0.0306455)
(-0.0430703 0.0938154 -0.0336289)
(-0.0285244 0.0876479 -0.0357549)
(-0.0127943 0.0815166 -0.0371095)
(0.00962428 0.080506 -0.0366651)
(0.0253547 0.0859396 -0.0350445)
(0.0398504 0.0918205 -0.0328445)
(0.0501825 0.096925 -0.0298956)
(0.0554977 0.100906 -0.0263075)
(0.0553651 0.103747 -0.0222176)
(0.0494962 0.105531 -0.0178232)
(0.0385348 0.106223 -0.0133074)
(0.0204472 0.105565 -0.00906894)
(0.0097312 0.100627 -0.00858747)
(-0.00494323 0.127388 -0.00494323)
(-0.0114324 0.131798 -0.00369151)
(-0.0278968 0.131265 -0.00649889)
(-0.0383042 0.129039 -0.00993776)
(-0.0450411 0.125541 -0.0134336)
(-0.0469714 0.120793 -0.0167843)
(-0.0441806 0.11462 -0.0197081)
(-0.0368004 0.106976 -0.0220292)
(-0.0251962 0.0982241 -0.0237322)
(-0.0116813 0.089768 -0.0250317)
(0.00828218 0.0881684 -0.0247237)
(0.0221955 0.0954518 -0.0231594)
(0.0340012 0.103732 -0.0213458)
(0.0415959 0.111224 -0.0190565)
(0.044671 0.117341 -0.0162555)
(0.043153 0.121994 -0.0130824)
(0.0370045 0.125271 -0.00976692)
(0.0273042 0.127057 -0.00644784)
(0.0118425 0.126743 -0.00355812)
(0.00522724 0.12093 -0.00402598)
(-0.00118754 0.135858 -0.00118754)
(-0.00293296 0.14161 0.00106566)
(-0.0161527 0.141045 -0.000324626)
(-0.0251809 0.138106 -0.00263112)
(-0.032455 0.133694 -0.0052137)
(-0.0361902 0.127856 -0.0078871)
(-0.0360582 0.120015 -0.0102721)
(-0.0317768 0.109903 -0.0122321)
(-0.0231236 0.0981694 -0.0139287)
(-0.0114879 0.0866562 -0.0156121)
(0.0073447 0.084209 -0.0155178)
(0.0200971 0.0942317 -0.013674)
(0.0294636 0.105503 -0.0118156)
(0.0342409 0.11559 -0.00983751)
(0.034744 0.123483 -0.00754488)
(0.0314434 0.129402 -0.00505531)
(0.0247308 0.133723 -0.00265388)
(0.0162864 0.13627 -0.000450994)
(0.0038717 0.136001 0.00104311)
(0.00168121 0.128852 -0.000502714)
(0.00196375 0.132593 0.00196374)
(0.00537376 0.14005 0.0051406)
(-0.00376219 0.140245 0.00533489)
(-0.0109999 0.136805 0.00430945)
(-0.0187229 0.1314 0.00276544)
(-0.0244912 0.124157 0.0008631)
(-0.0275946 0.114473 -0.00104349)
(-0.0271136 0.101924 -0.00287319)
(-0.0218691 0.0871651 -0.00489932)
(-0.0120297 0.0725595 -0.00742025)
(0.00680537 0.0690009 -0.00766673)
(0.0188828 0.0819459 -0.00509209)
(0.0255434 0.0963797 -0.00277905)
(0.0268826 0.109179 -0.000843362)
(0.0242696 0.119263 0.000981729)
(0.0189063 0.126813 0.00271291)
(0.0116438 0.132264 0.00410217)
(0.00478761 0.135386 0.00507085)
(-0.00393055 0.134472 0.00504294)
(-0.00131544 0.12568 0.002417)
(0.00497528 0.118848 0.00497527)
(0.0132327 0.127957 0.00874884)
(0.00978854 0.12959 0.0104534)
(0.00542398 0.126613 0.0109118)
(-0.00222351 0.120773 0.0105514)
(-0.0100492 0.112521 0.00946545)
(-0.0169607 0.101197 0.00806383)
(-0.0213923 0.0860432 0.00645001)
(-0.020841 0.0674386 0.00418072)
(-0.0131543 0.0479537 0.000824396)
(0.00674991 0.0429846 0.00013724)
(0.0183227 0.0606308 0.00350855)
(0.0212441 0.0794477 0.0061898)
(0.0180032 0.0953714 0.00799118)
(0.0115674 0.107508 0.00932922)
(0.00401822 0.116295 0.0102872)
(-0.00346324 0.122391 0.010578)
(-0.00780974 0.12518 0.0101409)
(-0.0113592 0.122976 0.00861839)
(-0.00417206 0.112683 0.00520714)
(0.00807874 0.0953475 0.00807875)
(0.0208762 0.105451 0.0122071)
(0.0243711 0.108591 0.0152454)
(0.0245881 0.106968 0.0171989)
(0.0195694 0.102293 0.0181478)
(0.0114704 0.0948288 0.0180856)
(0.00103642 0.0831921 0.0172468)
(-0.0100512 0.0652828 0.0156058)
(-0.0170705 0.0419001 0.012754)
(-0.0129104 0.0147685 0.00828781)
(0.00566583 0.00555491 0.00679151)
(0.0159488 0.0327131 0.0115556)
(0.0128312 0.0574026 0.0149384)
(0.00293243 0.076778 0.0168322)
(-0.00789414 0.0903875 0.0177347)
(-0.0161492 0.0985909 0.0177461)
(-0.0213561 0.103576 0.0168195)
(-0.021494 0.105124 0.0149566)
(-0.0186082 0.101588 0.0120781)
(-0.00712001 0.0905499 0.00810736)
(0.0115385 0.0618472 0.0115384)
(0.0280887 0.0708566 0.0157164)
(0.0397633 0.0741862 0.0198037)
(0.0472311 0.0738235 0.0231271)
(0.0485946 0.0711653 0.0254326)
(0.044647 0.0662883 0.0266039)
(0.0357403 0.0579393 0.0266695)
(0.0220771 0.0432675 0.0254856)
(0.00391748 0.0161065 0.0215194)
(0.00659277 -0.0265259 0.0130251)
(-0.00634163 -0.034527 0.00957124)
(0.000802228 -0.000642398 0.0182491)
(-0.0149454 0.0355504 0.0244835)
(-0.0297094 0.0532331 0.0260314)
(-0.0395366 0.0633481 0.0260765)
(-0.0439965 0.0688398 0.0249677)
(-0.0430979 0.0717331 0.0227696)
(-0.0362618 0.0720721 0.0195823)
(-0.0255406 0.0685103 0.0156178)
(-0.0104512 0.0589315 0.0114318)
(0.0137664 0.0359644 0.0137664)
(0.0320284 0.041422 0.0172127)
(0.0524198 0.0432799 0.0216516)
(0.0700734 0.0434318 0.0258235)
(0.0823884 0.0426581 0.0292253)
(0.089086 0.040946 0.0316318)
(0.0899921 0.0376961 0.0328143)
(0.0838265 0.0315462 0.0323339)
(0.0702329 0.0197148 0.0292921)
(0.0483593 0.000492802 0.0196532)
(-0.0248513 -0.0089589 0.0146039)
(-0.0642096 0.0138481 0.0265063)
(-0.0761896 0.0281537 0.0306994)
(-0.0842028 0.0357454 0.0318508)
(-0.0841351 0.0397471 0.0309683)
(-0.0778793 0.0417299 0.0287583)
(-0.0660174 0.0426212 0.0255385)
(-0.0490293 0.0425181 0.021544)
(-0.0296323 0.0406854 0.0172381)
(-0.0128055 0.0352499 0.0137611)
(-0.0264202 0.045122 -0.0425123)
(-0.0440635 0.0371192 -0.0440635)
(-0.0689084 0.0292131 -0.0544756)
(-0.0827188 0.0231495 -0.0653335)
(-0.088723 0.0180587 -0.0750416)
(-0.0872461 0.0133744 -0.0831378)
(-0.0790279 0.00875761 -0.0896253)
(-0.0645113 0.00403899 -0.0945754)
(-0.0443026 -0.000818619 -0.0979047)
(-0.0217098 -0.00566201 -0.0995976)
(0.0135908 -0.0065553 -0.0995441)
(0.0377041 -0.00171965 -0.0981362)
(0.0588386 0.00332533 -0.0948257)
(0.0741313 0.00823104 -0.0896623)
(0.082852 0.0129885 -0.0828202)
(0.0846342 0.017734 -0.0744046)
(0.0788751 0.0227913 -0.0644657)
(0.0653925 0.0286926 -0.0534228)
(0.0412749 0.0361839 -0.0427013)
(0.0244031 0.0432332 -0.0403688)
(-0.0167827 0.0768035 -0.031235)
(-0.0264893 0.0725151 -0.0264893)
(-0.0466038 0.0658408 -0.0314433)
(-0.0593936 0.0591574 -0.0390599)
(-0.0664361 0.0524328 -0.046865)
(-0.0671756 0.0454536 -0.0538109)
(-0.0618831 0.0380875 -0.0594073)
(-0.0509025 0.0302689 -0.0635298)
(-0.0347234 0.0222784 -0.0659112)
(-0.0154753 0.0150409 -0.0668717)
(0.0094676 0.0140843 -0.0662255)
(0.0292696 0.0208655 -0.0647626)
(0.0457925 0.0289156 -0.0622018)
(0.057154 0.0368765 -0.0580575)
(0.0627998 0.0443038 -0.0525138)
(0.0624282 0.0512268 -0.045702)
(0.0558408 0.0577548 -0.0380754)
(0.0436511 0.064055 -0.0305739)
(0.0245052 0.0700284 -0.0254237)
(0.0153563 0.0730925 -0.0292138)
(-0.00939944 0.10956 -0.0205713)
(-0.0131135 0.103652 -0.0131135)
(-0.0287671 0.0944379 -0.0151698)
(-0.0397915 0.0843972 -0.0205711)
(-0.0471426 0.0739028 -0.0266819)
(-0.0496471 0.062882 -0.0323345)
(-0.0471578 0.0512211 -0.0368681)
(-0.0397188 0.0389968 -0.0399679)
(-0.0276135 0.0268106 -0.0415249)
(-0.012296 0.0166697 -0.0420764)
(0.00687936 0.0151846 -0.0413783)
(0.0227366 0.0242949 -0.0400948)
(0.0351611 0.0363221 -0.0382826)
(0.042934 0.0486483 -0.0352521)
(0.0457865 0.0604232 -0.030978)
(0.0437112 0.071445 -0.0256649)
(0.0369022 0.0817477 -0.0198884)
(0.02653 0.0913186 -0.0146801)
(0.0118258 0.099637 -0.0123974)
(0.00840156 0.104043 -0.0187169)
(-0.00369151 0.131798 -0.0114324)
(-0.00212544 0.124459 -0.00212544)
(-0.0134545 0.113676 -0.00178818)
(-0.0223044 0.101483 -0.0049958)
(-0.0295959 0.0884089 -0.00929171)
(-0.0337165 0.0744063 -0.0135743)
(-0.0341498 0.059334 -0.0170697)
(-0.0305314 0.0432341 -0.0193788)
(-0.0225863 0.0269437 -0.0205905)
(-0.0107592 0.0134016 -0.0213354)
(0.00510242 0.0111651 -0.0208561)
(0.0180062 0.0230984 -0.0195053)
(0.0266215 0.0391237 -0.0180193)
(0.0307502 0.0554046 -0.0157872)
(0.0307614 0.0707292 -0.0126023)
(0.0270999 0.0848372 -0.00873317)
(0.0203484 0.0977648 -0.00481099)
(0.0120786 0.109456 -0.00177255)
(0.0015496 0.119255 -0.00178827)
(0.00305407 0.12494 -0.00978334)
(0.00106566 0.14161 -0.00293297)
(0.00701724 0.134211 0.00701725)
(0.000274098 0.123119 0.00952973)
(-0.0061292 0.109838 0.0086798)
(-0.0130765 0.0953016 0.00645267)
(-0.0187154 0.0793569 0.00374009)
(-0.022237 0.0618857 0.00127546)
(-0.0227241 0.0425842 -0.000546682)
(-0.0189971 0.0221363 -0.00188554)
(-0.0101106 0.00423994 -0.00322759)
(0.00392082 0.000653121 -0.00294501)
(0.014751 0.0167016 -0.00142757)
(0.0197555 0.0370423 0.000195266)
(0.0200149 0.056683 0.00198259)
(0.0170184 0.0747108 0.00412899)
(0.0118182 0.0909396 0.00643812)
(0.00533229 0.105416 0.00834022)
(-0.000640397 0.118187 0.00910595)
(-0.00684724 0.128288 0.00700184)
(-0.00133939 0.13403 -0.00157313)
(0.00514059 0.14005 0.00537376)
(0.0148437 0.133265 0.0148437)
(0.0129923 0.123004 0.0190488)
(0.00955603 0.110277 0.0204291)
(0.00349342 0.0957901 0.0202886)
(-0.00345599 0.0790076 0.0191321)
(-0.00996971 0.0599846 0.0176548)
(-0.014735 0.0377351 0.0162449)
(-0.0154882 0.012791 0.014648)
(-0.00928397 -0.0118493 0.0126494)
(0.00285884 -0.0172559 0.0120743)
(0.011962 0.00537485 0.0143578)
(0.0132923 0.0308082 0.0162821)
(0.00947884 0.0539913 0.0176952)
(0.00342715 0.07385 0.0188935)
(-0.00321471 0.0911089 0.019726)
(-0.0090116 0.105633 0.0196588)
(-0.0122727 0.11789 0.0183072)
(-0.01396 0.127209 0.0145449)
(-0.00499198 0.132354 0.00627006)
(0.00874884 0.127957 0.0132327)
(0.0219419 0.122509 0.0219419)
(0.0252508 0.113973 0.0273849)
(0.0252787 0.102912 0.0306123)
(0.0209969 0.0898806 0.0321962)
(0.0139425 0.0745047 0.0323275)
(0.00517764 0.0560743 0.0315091)
(-0.00408554 0.0322571 0.030007)
(-0.0101694 0.00356182 0.0273433)
(-0.00657092 -0.0278724 0.0221854)
(0.00107971 -0.0356227 0.0203882)
(0.0077847 -0.00665325 0.0264371)
(0.00497973 0.0240061 0.0292629)
(-0.00341217 0.0497018 0.0308381)
(-0.0120167 0.0694522 0.0314899)
(-0.0190352 0.0854424 0.0311935)
(-0.0233276 0.0985709 0.0295519)
(-0.0234336 0.109224 0.0264484)
(-0.0203866 0.116897 0.0214253)
(-0.00819089 0.120781 0.0136349)
(0.0122071 0.105451 0.0208762)
(0.0287255 0.101936 0.0287255)
(0.0376125 0.0958575 0.035078)
(0.0420332 0.0875199 0.0397449)
(0.0410063 0.0773457 0.0426494)
(0.0355486 0.0649524 0.0437317)
(0.0263443 0.0492591 0.0431597)
(0.0142114 0.0276678 0.0408933)
(0.00199207 -0.0027709 0.0362473)
(0.00178795 -0.0413375 0.0258123)
(-0.0034252 -0.0511304 0.0219088)
(-0.00183396 -0.0156996 0.0332258)
(-0.0101087 0.0189616 0.0391322)
(-0.0221662 0.0433169 0.0417615)
(-0.0316954 0.0606586 0.0424054)
(-0.0374444 0.0737046 0.0413283)
(-0.038772 0.0839905 0.0385091)
(-0.0347841 0.0919951 0.0340419)
(-0.0265645 0.0973368 0.0280542)
(-0.0112749 0.0994584 0.0208079)
(0.0157165 0.0708566 0.0280887)
(0.0349438 0.0699978 0.0349438)
(0.0500752 0.066572 0.0418696)
(0.0605022 0.0613479 0.0475927)
(0.0651304 0.0548125 0.0515294)
(0.0643333 0.0466693 0.0534197)
(0.0582689 0.0358178 0.0530861)
(0.0467984 0.019423 0.0500444)
(0.0301263 -0.00750949 0.0425335)
(0.0222829 -0.0425147 0.0271349)
(-0.0134835 -0.0522164 0.0208207)
(-0.0255091 -0.0201944 0.0372532)
(-0.0396333 0.0117953 0.0472304)
(-0.0523114 0.0314996 0.0509963)
(-0.059148 0.0438663 0.051668)
(-0.0604535 0.0525234 0.0499783)
(-0.0562907 0.0591258 0.046256)
(-0.0464815 0.0640964 0.0408002)
(-0.0322946 0.0669539 0.0342001)
(-0.0144674 0.0667133 0.0276857)
(0.0172126 0.041422 0.0320284)
(0.0374774 0.042124 0.0374774)
(0.0598223 0.0405523 0.04448)
(0.0787685 0.0380745 0.0507933)
(0.0925111 0.0351582 0.0554953)
(0.100897 0.0317125 0.058199)
(0.10357 0.0272586 0.0584556)
(0.0991102 0.0206563 0.0554065)
(0.0850514 0.00987634 0.0478954)
(0.0593383 -0.0107438 0.0319057)
(-0.0299505 -0.0207064 0.0244876)
(-0.0745805 0.00338786 0.0419039)
(-0.0911918 0.0174987 0.051652)
(-0.0975036 0.0254757 0.0558301)
(-0.0957666 0.0305319 0.0561809)
(-0.0878034 0.034161 0.0538631)
(-0.0744461 0.0370847 0.0494971)
(-0.0560902 0.0394501 0.0435388)
(-0.034716 0.0407831 0.0368999)
(-0.0158865 0.0396189 0.0316962)
(-0.0353339 0.0417379 -0.0660756)
(-0.0544756 0.0292131 -0.0689084)
(-0.0798253 0.0186314 -0.0798253)
(-0.0926508 0.0104845 -0.0918453)
(-0.0973082 0.00375847 -0.102408)
(-0.0944867 -0.00227256 -0.110613)
(-0.0851135 -0.00810996 -0.116339)
(-0.069489 -0.0139411 -0.119531)
(-0.0478892 -0.019883 -0.120348)
(-0.0231916 -0.0257292 -0.119874)
(0.013252 -0.0269712 -0.119758)
(0.040143 -0.0211233 -0.120545)
(0.0631827 -0.0148101 -0.119731)
(0.079967 -0.00864711 -0.116291)
(0.0899618 -0.00253904 -0.11005)
(0.0930612 0.00364627 -0.101385)
(0.0885455 0.0103979 -0.0904905)
(0.0759475 0.0184046 -0.078235)
(0.0513254 0.0285678 -0.06705)
(0.0330416 0.0401226 -0.0637135)
(-0.0226104 0.0766889 -0.0527062)
(-0.0314433 0.0658408 -0.0466038)
(-0.0504669 0.0535525 -0.0504669)
(-0.0621038 0.0415705 -0.0582718)
(-0.06842 0.0300894 -0.066636)
(-0.0689207 0.018874 -0.0738948)
(-0.0636558 0.00769886 -0.0792323)
(-0.0528664 -0.00369677 -0.0826776)
(-0.0364975 -0.0150665 -0.0838116)
(-0.0162327 -0.0249405 -0.0834747)
(0.00915077 -0.026372 -0.0824905)
(0.0301625 -0.0171179 -0.0818801)
(0.0470456 -0.00543514 -0.0803733)
(0.0583629 0.00641205 -0.0769189)
(0.0640196 0.0178782 -0.0716813)
(0.0638794 0.0291805 -0.0646401)
(0.0579851 0.0405181 -0.0565407)
(0.046926 0.052085 -0.0489292)
(0.0289169 0.0636018 -0.0449799)
(0.0208351 0.0731756 -0.0504597)
(-0.0135531 0.109428 -0.039741)
(-0.0151698 0.0944379 -0.0287671)
(-0.0283517 0.0777803 -0.0283517)
(-0.0376495 0.061043 -0.0328996)
(-0.0443281 0.0446163 -0.0390317)
(-0.0471095 0.0282674 -0.0448848)
(-0.0454849 0.0117117 -0.0494345)
(-0.0391434 -0.00510181 -0.0522744)
(-0.0278759 -0.0215378 -0.053157)
(-0.012579 -0.0350081 -0.0528388)
(0.00630317 -0.037055 -0.0517395)
(0.0222711 -0.0248304 -0.0507911)
(0.0339643 -0.00823178 -0.0494334)
(0.0407367 0.00903753 -0.0467414)
(0.0427717 0.0259683 -0.0426107)
(0.0404115 0.0424788 -0.0372505)
(0.0342377 0.0587685 -0.0315719)
(0.0255454 0.0749973 -0.0272838)
(0.0132993 0.0906704 -0.0275352)
(0.0121786 0.104061 -0.0376666)
(-0.00649889 0.131265 -0.0278968)
(-0.00178819 0.113676 -0.0134545)
(-0.00962581 0.0950773 -0.00962581)
(-0.0161747 0.0760855 -0.0111064)
(-0.0226231 0.0569573 -0.0148816)
(-0.0272163 0.0374006 -0.0191585)
(-0.0290173 0.0170161 -0.0226915)
(-0.0271931 -0.00430018 -0.0248613)
(-0.02104 -0.0256781 -0.02569)
(-0.0103315 -0.0434751 -0.0258619)
(0.0040991 -0.046483 -0.0251058)
(0.0160167 -0.0305942 -0.0238501)
(0.0229329 -0.00904763 -0.0225514)
(0.0253393 0.0129148 -0.0205638)
(0.0239902 0.0338653 -0.0175156)
(0.0198296 0.0537025 -0.0138161)
(0.0138567 0.0727307 -0.0105124)
(0.00779495 0.0911747 -0.00920973)
(0.000661999 0.10869 -0.0126991)
(0.00548235 0.124495 -0.0260612)
(-0.000324629 0.141045 -0.0161527)
(0.00952973 0.123119 0.000274095)
(0.00677194 0.104613 0.00677194)
(0.00319579 0.0852274 0.00811766)
(-0.00248243 0.0649054 0.00670152)
(-0.00836943 0.0436552 0.00409804)
(-0.013311 0.020857 0.00157944)
(-0.0160465 -0.00388028 -0.000273578)
(-0.0149924 -0.0297156 -0.00176508)
(-0.00846059 -0.0524585 -0.00332698)
(0.00237158 -0.0567922 -0.00323845)
(0.0108455 -0.0365021 -0.000955095)
(0.0131449 -0.0102803 0.000982355)
(0.0111782 0.0155034 0.00270271)
(0.00669308 0.03915 0.00477368)
(0.00116493 0.0608594 0.00685665)
(-0.00415552 0.0811061 0.00789635)
(-0.00745762 0.0999395 0.00652857)
(-0.00982115 0.117377 0.000559326)
(-0.000335905 0.133453 -0.0145944)
(0.0053349 0.140245 -0.00376219)
(0.0190488 0.123004 0.0129923)
(0.0212222 0.105611 0.0212222)
(0.0208056 0.0873834 0.0248858)
(0.016703 0.0681452 0.0257232)
(0.0103844 0.0474258 0.0247581)
(0.00300192 0.0243128 0.0229646)
(-0.00415739 -0.00280722 0.0207609)
(-0.00823839 -0.0324103 0.0177166)
(-0.00571536 -0.060829 0.0134861)
(0.000610687 -0.0668912 0.0124851)
(0.00556458 -0.0412615 0.01719)
(0.00328442 -0.0104724 0.0207401)
(-0.00308562 0.0181717 0.0229355)
(-0.0101696 0.0424591 0.0243908)
(-0.0163126 0.0637567 0.0250014)
(-0.0202956 0.0829976 0.0239735)
(-0.0207072 0.100693 0.0204422)
(-0.018515 0.117027 0.0128436)
(-0.00557249 0.132452 -0.00251949)
(0.0104534 0.12959 0.00978854)
(0.0273849 0.113973 0.0252508)
(0.0344876 0.0988736 0.0344876)
(0.0374868 0.0830957 0.0399497)
(0.035611 0.0662734 0.0425807)
(0.0299812 0.0477837 0.0428707)
(0.0215298 0.0264986 0.0414415)
(0.0112353 0.000318856 0.0384334)
(0.00192842 -0.0315943 0.0329282)
(-5.68773e-05 -0.0663043 0.0242685)
(-0.00237527 -0.074362 0.0216337)
(-0.00234326 -0.0427544 0.0306817)
(-0.00934165 -0.00831406 0.0369191)
(-0.0192516 0.0201917 0.0402528)
(-0.0277376 0.0429668 0.0415673)
(-0.0334773 0.0621057 0.0411384)
(-0.0355073 0.0789557 0.038506)
(-0.0327848 0.0942312 0.033299)
(-0.0260623 0.108316 0.0247151)
(-0.010207 0.122157 0.0105254)
(0.0152454 0.108591 0.0243711)
(0.035078 0.0958575 0.0376125)
(0.0472127 0.0841391 0.0472127)
(0.0541615 0.0719832 0.05391)
(0.0554851 0.0589401 0.0578347)
(0.0519583 0.0443464 0.0590351)
(0.0441334 0.0269444 0.0576773)
(0.0325386 0.00413806 0.0535704)
(0.018649 -0.0271519 0.0452334)
(0.0111521 -0.0651043 0.0313451)
(-0.00785207 -0.0750393 0.0263952)
(-0.0159167 -0.0398066 0.0407525)
(-0.0274841 -0.00457972 0.0505019)
(-0.0396289 0.021282 0.0554388)
(-0.0478787 0.0402912 0.0569616)
(-0.0517857 0.0555021 0.0558289)
(-0.0508466 0.0685666 0.0520648)
(-0.0444158 0.0802742 0.0457051)
(-0.0330277 0.0910758 0.0367103)
(-0.0145039 0.102156 0.0244804)
(0.0198037 0.0741862 0.0397633)
(0.0418696 0.066572 0.0500752)
(0.059366 0.0592893 0.059366)
(0.0713558 0.0515039 0.0666797)
(0.0774963 0.0430411 0.0714183)
(0.0782033 0.0334145 0.0732805)
(0.0735075 0.02146 0.0720231)
(0.0630916 0.00447933 0.0671129)
(0.0455433 -0.0207732 0.0564506)
(0.0305652 -0.0530524 0.0383621)
(-0.0170006 -0.0627262 0.0311034)
(-0.0388047 -0.0319908 0.0499104)
(-0.0550997 -0.00279242 0.0627676)
(-0.0673178 0.017349 0.0688032)
(-0.0728302 0.0307376 0.0705182)
(-0.0726772 0.040855 0.0689434)
(-0.0670261 0.0493196 0.0645041)
(-0.0556782 0.0567487 0.0575802)
(-0.0391721 0.0632855 0.0488187)
(-0.0185775 0.069495 0.0392065)
(0.0216516 0.0432799 0.0524198)
(0.04448 0.0405523 0.0598223)
(0.0684435 0.0371166 0.0684435)
(0.0877962 0.0333519 0.0758944)
(0.10161 0.0294105 0.0810744)
(0.109987 0.0251512 0.0834836)
(0.112407 0.0201193 0.0826038)
(0.107504 0.0132829 0.0776668)
(0.0898432 0.00207502 0.0674038)
(0.0622765 -0.0189958 0.0486889)
(-0.0314105 -0.0287386 0.0398834)
(-0.0783072 -0.00441663 0.060158)
(-0.0987641 0.0103438 0.0726477)
(-0.105804 0.0183954 0.0786401)
(-0.104469 0.0239566 0.0802499)
(-0.0965845 0.0283716 0.0783238)
(-0.0831547 0.0322731 0.0735578)
(-0.0643755 0.0358476 0.066544)
(-0.0414194 0.0389049 0.0584018)
(-0.0201034 0.0409027 0.0514421)
(-0.0433491 0.0391953 -0.0790778)
(-0.0653335 0.0231495 -0.0827188)
(-0.0918453 0.0104845 -0.0926508)
(-0.103598 0.000856441 -0.103598)
(-0.106205 -0.00681379 -0.112683)
(-0.101058 -0.0134342 -0.118589)
(-0.0895716 -0.0199332 -0.121221)
(-0.072537 -0.0268129 -0.121352)
(-0.0500649 -0.0339617 -0.119745)
(-0.0242726 -0.0406373 -0.117823)
(0.0126778 -0.0422906 -0.118)
(0.0414952 -0.0355974 -0.120422)
(0.0660745 -0.0278419 -0.121965)
(0.0846232 -0.0203915 -0.121318)
(0.0968706 -0.0134957 -0.118023)
(0.102262 -0.00666939 -0.111549)
(0.0996634 0.00104834 -0.102034)
(0.0880155 0.0105279 -0.0908151)
(0.06219 0.0227467 -0.0806731)
(0.0410108 0.0378045 -0.0767513)
(-0.0285775 0.0763387 -0.0652648)
(-0.0390599 0.0591574 -0.0593936)
(-0.0582718 0.0415705 -0.0621038)
(-0.069045 0.0250016 -0.069045)
(-0.0742223 0.00997072 -0.0767498)
(-0.0738669 -0.00384047 -0.0834553)
(-0.067673 -0.0169894 -0.0876228)
(-0.0561501 -0.0301447 -0.0897243)
(-0.0390863 -0.0430963 -0.0900456)
(-0.0173883 -0.0541705 -0.0891817)
(0.0098488 -0.056023 -0.0879558)
(0.0323834 -0.0456154 -0.0875595)
(0.0500976 -0.0320399 -0.0867519)
(0.0621832 -0.0181402 -0.0845402)
(0.0687523 -0.00446886 -0.0804819)
(0.0694459 0.00952986 -0.0740787)
(0.0646497 0.0244296 -0.0667225)
(0.0544461 0.04051 -0.0600747)
(0.036306 0.057213 -0.0574327)
(0.0266639 0.0730396 -0.0629879)
(-0.0181775 0.108292 -0.0514497)
(-0.0205711 0.0843972 -0.0397915)
(-0.0328996 0.061043 -0.0376495)
(-0.0409947 0.0390623 -0.0409947)
(-0.0467212 0.0187073 -0.0464863)
(-0.0490821 -0.000579536 -0.0520611)
(-0.0474068 -0.0192498 -0.0564354)
(-0.0410256 -0.0379673 -0.0588925)
(-0.0295768 -0.0563968 -0.0597438)
(-0.0132105 -0.0716548 -0.0593141)
(0.00708733 -0.0741567 -0.0577658)
(0.0239273 -0.0602229 -0.0564492)
(0.0357163 -0.0412437 -0.0550146)
(0.042424 -0.0216681 -0.0527106)
(0.0445368 -0.002399 -0.0490027)
(0.0425143 0.0171487 -0.0440113)
(0.0372627 0.0373611 -0.0390873)
(0.0297673 0.0587424 -0.0360999)
(0.0184162 0.0809708 -0.0382123)
(0.0166388 0.10312 -0.0493295)
(-0.00993777 0.129039 -0.0383042)
(-0.0049958 0.101483 -0.0223044)
(-0.0111064 0.0760855 -0.0161747)
(-0.0159977 0.0521117 -0.0159977)
(-0.0213454 0.0292907 -0.0188757)
(-0.0256105 0.00680199 -0.0228034)
(-0.0277783 -0.0159088 -0.026577)
(-0.0263672 -0.0391781 -0.0288)
(-0.020718 -0.0626242 -0.0298847)
(-0.0099424 -0.0824852 -0.0301286)
(0.00436584 -0.0859995 -0.0290291)
(0.0160433 -0.0681788 -0.0272509)
(0.0222722 -0.0441001 -0.0255971)
(0.0240434 -0.0197733 -0.0235864)
(0.0222641 0.00373132 -0.0204964)
(0.0183807 0.0266205 -0.0172979)
(0.0134617 0.049352 -0.0149792)
(0.00901463 0.0726974 -0.0153762)
(0.00359797 0.096861 -0.0212469)
(0.00876193 0.122434 -0.0364395)
(-0.00263111 0.138106 -0.0251809)
(0.0086798 0.109838 -0.00612921)
(0.00811766 0.0852274 0.00319579)
(0.00650109 0.0616046 0.00650109)
(0.00228948 0.0384405 0.00621371)
(-0.00304291 0.0145575 0.0040366)
(-0.00833432 -0.0104351 0.00105212)
(-0.0115936 -0.0368839 -0.00127739)
(-0.0117531 -0.0644914 -0.0033551)
(-0.00654445 -0.0891601 -0.00529393)
(0.00182939 -0.0939621 -0.0050887)
(0.0084569 -0.071895 -0.00209962)
(0.00925866 -0.0432372 0.000495616)
(0.00641635 -0.0154808 0.00263165)
(0.00146459 0.0105438 0.00502711)
(-0.0035805 0.0349111 0.00658532)
(-0.00754087 0.0580506 0.00648816)
(-0.00897579 0.0810709 0.00319001)
(-0.00920337 0.104461 -0.00561276)
(0.00180746 0.130605 -0.0235786)
(0.00430945 0.136805 -0.0109999)
(0.0204291 0.110277 0.00955603)
(0.0248858 0.0873834 0.0208056)
(0.0264765 0.0655905 0.0264765)
(0.0240148 0.0439716 0.0283944)
(0.0187114 0.0214699 0.0278138)
(0.0114114 -0.00318916 0.0254413)
(0.00414798 -0.0308531 0.0222804)
(-0.00160086 -0.0617614 0.0181275)
(-0.00195264 -0.0915705 0.0131538)
(-0.000833316 -0.0979512 0.012082)
(0.000341673 -0.0710656 0.0176571)
(-0.00417175 -0.0384801 0.022342)
(-0.0110864 -0.00899874 0.0254157)
(-0.0182303 0.0169344 0.0274242)
(-0.0234791 0.0400854 0.0276316)
(-0.0259476 0.0617268 0.0255633)
(-0.0244633 0.0829451 0.0201072)
(-0.0200689 0.104648 0.00955754)
(-0.00472174 0.129094 -0.00973095)
(0.0109118 0.126613 0.00542399)
(0.0306123 0.102912 0.0252787)
(0.0399497 0.0830957 0.0374868)
(0.0447932 0.0643951 0.0447932)
(0.0445241 0.0456842 0.0483526)
(0.0401278 0.025926 0.0488714)
(0.0324524 0.00368661 0.046962)
(0.0222598 -0.0228955 0.0422994)
(0.0116068 -0.0545924 0.0353309)
(0.00533884 -0.0888191 0.0259285)
(-0.00447493 -0.0969957 0.0231042)
(-0.0100842 -0.0655853 0.0328048)
(-0.0195084 -0.0312026 0.0405226)
(-0.0294401 -0.00234571 0.0451781)
(-0.0375793 0.0215235 0.047273)
(-0.0422091 0.0419677 0.0466491)
(-0.0427519 0.0606969 0.0431474)
(-0.0382873 0.0788511 0.0362057)
(-0.0294071 0.0975394 0.0247828)
(-0.0108439 0.119261 0.00623763)
(0.0171989 0.106968 0.0245881)
(0.0397449 0.0875199 0.0420332)
(0.05391 0.0719832 0.0541615)
(0.06229 0.0575141 0.06229)
(0.0648604 0.0429968 0.0668179)
(0.0624281 0.0274984 0.0679664)
(0.055507 0.0095594 0.065965)
(0.0440602 -0.0134819 0.0601418)
(0.0291611 -0.0435605 0.0502838)
(0.0167812 -0.079038 0.0360615)
(-0.00990408 -0.0885491 0.0310239)
(-0.0243675 -0.0552754 0.0454867)
(-0.038463 -0.0216765 0.0566357)
(-0.0506117 0.0042362 0.0631594)
(-0.0581162 0.0237774 0.0653641)
(-0.0610112 0.0398886 0.0643203)
(-0.0589034 0.0544038 0.0600166)
(-0.0511143 0.0683807 0.0523406)
(-0.0377591 0.0829062 0.0409874)
(-0.0166035 0.100545 0.0247354)
(0.0231271 0.0738236 0.0472311)
(0.0475927 0.0613479 0.0605022)
(0.0666797 0.0515039 0.0713558)
(0.0793797 0.0421917 0.0793797)
(0.085981 0.032719 0.0841895)
(0.0870888 0.0224492 0.0855978)
(0.0827346 0.0101459 0.0834483)
(0.0718283 -0.00678149 0.0769538)
(0.0532407 -0.0302564 0.065138)
(0.0341568 -0.0598327 0.0472573)
(-0.018076 -0.0688779 0.0399411)
(-0.0448053 -0.0402234 0.0584055)
(-0.0634511 -0.0133532 0.0719665)
(-0.0761802 0.00623253 0.0794989)
(-0.0814689 0.0199465 0.0820699)
(-0.0809922 0.0307161 0.0809725)
(-0.0749325 0.0401788 0.0765059)
(-0.0629172 0.0490996 0.0689561)
(-0.0448717 0.05812 0.0587812)
(-0.0219565 0.0690562 0.0464437)
(0.0258235 0.0434318 0.0700734)
(0.0507933 0.0380744 0.0787685)
(0.0758944 0.0333519 0.0877962)
(0.0950912 0.0288199 0.0950912)
(0.108232 0.0243374 0.099643)
(0.115721 0.0197084 0.101007)
(0.117061 0.0144842 0.0987835)
(0.11067 0.0075682 0.0925074)
(0.0903323 -0.00390694 0.0808861)
(0.061811 -0.0244595 0.061531)
(-0.0309233 -0.0336647 0.0520997)
(-0.0779173 -0.0101741 0.0731479)
(-0.100418 0.00448515 0.086594)
(-0.109905 0.0127802 0.0939331)
(-0.109754 0.0185208 0.0967981)
(-0.102884 0.0233005 0.0958952)
(-0.090176 0.0277264 0.091752)
(-0.0715749 0.0320336 0.0849033)
(-0.0475341 0.0363095 0.0764024)
(-0.0241518 0.0408138 0.068285)
(-0.0505051 0.0368589 -0.0842687)
(-0.0750416 0.0180587 -0.088723)
(-0.102408 0.00375846 -0.0973082)
(-0.112683 -0.00681379 -0.106205)
(-0.112369 -0.0148095 -0.112369)
(-0.104524 -0.021883 -0.11513)
(-0.0908955 -0.0289674 -0.11429)
(-0.072308 -0.036366 -0.110201)
(-0.0494587 -0.0438139 -0.10444)
(-0.0243628 -0.0502826 -0.0999052)
(0.0106613 -0.0524343 -0.100769)
(0.0400286 -0.0458615 -0.106276)
(0.0659367 -0.0374218 -0.111879)
(0.086566 -0.0292118 -0.115117)
(0.101083 -0.0216381 -0.114953)
(0.10905 -0.0143383 -0.111379)
(0.109178 -0.00630834 -0.104661)
(0.0988089 0.00408411 -0.095442)
(0.0720037 0.0178926 -0.0866864)
(0.0481553 0.0356741 -0.0821088)
(-0.034277 0.0754525 -0.0711831)
(-0.046865 0.0524328 -0.0664361)
(-0.066636 0.0300894 -0.06842)
(-0.0767498 0.00997072 -0.0742223)
(-0.0807076 -0.00697849 -0.0807076)
(-0.0786146 -0.0214214 -0.0855301)
(-0.0714016 -0.0349258 -0.0883319)
(-0.0589763 -0.0483334 -0.0890404)
(-0.0410868 -0.0613019 -0.0882111)
(-0.0182427 -0.072107 -0.0867207)
(0.0106711 -0.0744833 -0.0852731)
(0.034322 -0.064242 -0.0851927)
(0.0529049 -0.0501522 -0.0854946)
(0.0659583 -0.0356623 -0.0847188)
(0.0735544 -0.0214767 -0.0820721)
(0.0758741 -0.00677387 -0.0775459)
(0.0722238 0.0100179 -0.0714699)
(0.062647 0.0295349 -0.0660605)
(0.0439625 0.0508352 -0.0642977)
(0.0322479 0.0723699 -0.0689844)
(-0.0227248 0.106223 -0.0578878)
(-0.0266819 0.0739028 -0.0471426)
(-0.0390317 0.0446163 -0.0443281)
(-0.0464863 0.0187073 -0.0467212)
(-0.0515636 -0.00380108 -0.0515636)
(-0.0530285 -0.0236286 -0.0562572)
(-0.050707 -0.0423817 -0.0599759)
(-0.0439308 -0.0611224 -0.0624022)
(-0.0317554 -0.079492 -0.0635444)
(-0.013757 -0.0948149 -0.063351)
(0.00871787 -0.097736 -0.0610747)
(0.026521 -0.0836332 -0.0589409)
(0.0386604 -0.0642244 -0.0572427)
(0.0456104 -0.0442382 -0.0552051)
(0.0482042 -0.0246379 -0.0522452)
(0.0471381 -0.00449856 -0.0484265)
(0.042515 0.0178002 -0.0442922)
(0.0356731 0.0429549 -0.0423897)
(0.0243336 0.0709011 -0.0453397)
(0.0210484 0.101251 -0.055816)
(-0.0134336 0.125541 -0.0450411)
(-0.00929172 0.0884089 -0.0295959)
(-0.0148816 0.0569573 -0.0226231)
(-0.0188757 0.0292907 -0.0213454)
(-0.0233403 0.00444565 -0.0233403)
(-0.0272653 -0.0187384 -0.0270222)
(-0.0287823 -0.0411839 -0.0302785)
(-0.0271877 -0.0640323 -0.0328099)
(-0.0211954 -0.0871229 -0.0344306)
(-0.00950086 -0.107129 -0.0349468)
(0.00556056 -0.110993 -0.0331851)
(0.017353 -0.092949 -0.0305629)
(0.0234259 -0.0687634 -0.0283998)
(0.0251125 -0.0444415 -0.0263259)
(0.0238045 -0.0209628 -0.0239245)
(0.0202578 0.00265232 -0.0211786)
(0.0162033 0.0273703 -0.0198649)
(0.0126369 0.0542766 -0.0214612)
(0.00773661 0.0842654 -0.0283165)
(0.0121327 0.119107 -0.043225)
(-0.00521371 0.133694 -0.032455)
(0.00645267 0.0953016 -0.0130765)
(0.00670152 0.0649054 -0.00248243)
(0.0062137 0.0384405 0.00228948)