/*--------------------------------*- C++ -*----------------------------------*\
  =========                 |
  \\      /  F ield         | OpenFOAM: The Open Source CFD Toolbox
   \\    /   O peration     | Website:  https://openfoam.org
    \\  /    A nd           | Version:  dev
     \\/     M anipulation  |
\*---------------------------------------------------------------------------*/
FoamFile
{
    version     2.0;
    format      ascii;
    class       surfaceScalarField;
    location    "11";
    object      phi;
}
// * * * * * * * * * * * * * * * * * * * * * * * * * * * * * * * * * * * * * //

dimensions      [1 0 -1 0 0 0 0];

internalField   nonuniform List<scalar> 
15760
(
2.29053e-06
0.00115633
-5.69592e-06
0.0011666
-2.63435e-05
0.00117925
0.00115402
-2.1764e-05
6.2035e-07
0.00115571
-8.86762e-06
0.00117609
-3.6448e-05
0.00120683
0.00117728
-5.97082e-05
6.24621e-06
0.00114946
1.53579e-06
0.0011808
-2.21001e-05
0.00123047
0.00122282
-6.76353e-05
2.20627e-05
0.0011274
3.25435e-05
0.00117032
3.34505e-05
0.00122956
0.00126894
-1.26747e-05
4.70085e-05
0.00108039
8.48161e-05
0.00113251
0.000128279
0.0011861
0.00125998
0.000137237
7.37124e-05
0.00100668
0.000143933
0.00106229
0.00023101
0.00109902
0.00117427
0.000316724
9.2709e-05
0.00091397
0.00018651
0.000968489
0.000300447
0.000985086
0.00104236
0.000432352
0.000100252
0.000813718
0.000202387
0.000866354
0.000322144
0.000865329
0.000892764
0.000471744
9.84577e-05
0.00071526
0.000197061
0.00076775
0.00030483
0.00075756
0.000754739
0.000442856
9.21333e-05
0.000623127
0.00018166
0.000678224
0.000270863
0.000668356
0.000645981
0.000379622
8.5325e-05
0.000537802
0.000164536
0.000599013
0.00023823
0.000594662
0.000564288
0.000319925
7.70424e-05
0.00046076
0.000146448
0.000529608
0.000210133
0.000530977
0.000499662
0.000274759
6.37053e-05
0.000397054
0.000124271
0.000469043
0.000181514
0.000473734
0.000445103
0.000236074
4.75151e-05
0.000349539
9.94902e-05
0.000417068
0.00015081
0.000422414
0.000398082
0.000197831
3.43306e-05
0.000315208
7.7695e-05
0.000373703
0.000122016
0.000378093
0.000358324
0.000161774
2.63278e-05
0.000288881
6.17409e-05
0.00033829
9.851e-05
0.000341324
0.000325448
0.000131386
2.1841e-05
0.00026704
5.05507e-05
0.000309581
8.04131e-05
0.000311461
0.00029853
0.000107331
1.8769e-05
0.000248271
4.21417e-05
0.000286208
6.63705e-05
0.000287233
0.000276491
8.84097e-05
1.61424e-05
0.000232128
3.53405e-05
0.00026701
5.51546e-05
0.000267418
0.000258385
7.32599e-05
1.37736e-05
0.000218355
2.96652e-05
0.000251118
4.59862e-05
0.000251098
0.000243463
6.09089e-05
1.16694e-05
0.000206685
2.48841e-05
0.000237903
3.83768e-05
0.000237605
0.000231138
5.07017e-05
9.82742e-06
0.000196858
2.08314e-05
0.000226899
3.19925e-05
0.000226444
0.000220955
4.21754e-05
8.22496e-06
0.000188633
1.73751e-05
0.000217749
2.65896e-05
0.000217229
0.000212558
3.49863e-05
6.83398e-06
0.000181799
1.44108e-05
0.000210172
2.19845e-05
0.000209656
0.000205667
2.8876e-05
5.62683e-06
0.000176172
1.18561e-05
0.000203943
1.80362e-05
0.000203476
0.000200056
2.36468e-05
4.57829e-06
0.000171594
9.64546e-06
0.000198876
1.46346e-05
0.000198486
0.000195544
1.91469e-05
3.66624e-06
0.000167927
7.72663e-06
0.000194816
1.1693e-05
0.00019452
0.000191979
1.52577e-05
2.87183e-06
0.000165056
6.05713e-06
0.00019163
9.14212e-06
0.000191435
0.000189235
1.18863e-05
2.17931e-06
0.000162876
4.60286e-06
0.000189207
6.9266e-06
0.000189111
0.000187203
8.95874e-06
1.57498e-06
0.000161301
3.33538e-06
0.000187446
5.00139e-06
0.000187445
0.000185788
6.41582e-06
1.04753e-06
0.000160254
2.23234e-06
0.000186262
3.33118e-06
0.000186346
0.000184909
4.21027e-06
5.80547e-07
0.000159673
1.27446e-06
0.000185568
1.88794e-06
0.000185733
0.000184493
2.30374e-06
2.02223e-07
0.000159471
4.72358e-07
0.000185298
6.56458e-07
0.000185549
0.000184486
6.63802e-07
-1.33334e-07
0.000159604
-2.28927e-07
0.000185393
-4.09651e-07
0.00018573
0.000184828
-7.51234e-07
-4.34369e-07
0.000160039
-8.483e-07
0.000185807
-1.33814e-06
0.000186219
0.00018546
-1.97057e-06
-6.84749e-07
0.000160723
-1.36875e-06
0.000186491
-2.12224e-06
0.000186973
0.00018634
-3.00226e-06
-8.92421e-07
0.000161616
-1.80174e-06
0.0001874
-2.77479e-06
0.000187946
0.000187426
-3.86105e-06
-1.06344e-06
0.000162679
-2.15858e-06
0.000188496
-3.31217e-06
0.0001891
0.000188681
-4.56705e-06
-1.2023e-06
0.000163881
-2.44828e-06
0.000189742
-3.74772e-06
0.000190399
0.000190071
-5.13762e-06
-1.31258e-06
0.000165194
-2.67837e-06
0.000191107
-4.09279e-06
0.000191813
0.000191566
-5.5877e-06
-1.39742e-06
0.000166591
-2.85545e-06
0.000192565
-4.35747e-06
0.000193315
0.000193139
-5.93078e-06
-1.4597e-06
0.000168051
-2.98556e-06
0.000194091
-4.55101e-06
0.000194881
0.000194768
-6.17941e-06
-1.50214e-06
0.000169553
-3.07433e-06
0.000195663
-4.68214e-06
0.000196489
0.000196431
-6.34509e-06
-1.52716e-06
0.00017108
-3.12706e-06
0.000197263
-4.75872e-06
0.00019812
0.00019811
-6.43805e-06
-1.53701e-06
0.000172617
-3.14834e-06
0.000198875
-4.78752e-06
0.00019976
0.00019979
-6.4676e-06
-1.5337e-06
0.000174151
-3.14226e-06
0.000200483
-4.77502e-06
0.000201392
0.000201458
-6.44273e-06
-1.51921e-06
0.00017567
-3.11289e-06
0.000202077
-4.72765e-06
0.000203007
0.000203102
-6.37194e-06
-1.49533e-06
0.000177166
-3.06407e-06
0.000203646
-4.65113e-06
0.000204594
0.000204714
-6.26266e-06
-1.46361e-06
0.000178629
-2.99914e-06
0.000205181
-4.55035e-06
0.000206145
0.000206285
-6.12155e-06
-1.42548e-06
0.000180055
-2.92103e-06
0.000206677
-4.4298e-06
0.000207654
0.00020781
-5.95459e-06
-1.3822e-06
0.000181437
-2.83236e-06
0.000208127
-4.29348e-06
0.000209115
0.000209283
-5.76708e-06
-1.33496e-06
0.000182772
-2.73546e-06
0.000209527
-4.14494e-06
0.000210525
0.000210702
-5.56376e-06
-1.28473e-06
0.000184057
-2.63241e-06
0.000210875
-3.98732e-06
0.00021188
0.000212064
-5.34879e-06
-1.23241e-06
0.000185289
-2.52504e-06
0.000212168
-3.82336e-06
0.000213178
0.000213366
-5.12584e-06
-1.17874e-06
0.000186468
-2.41493e-06
0.000213404
-3.65544e-06
0.000214418
0.000214609
-4.89805e-06
-1.1244e-06
0.000187592
-2.30345e-06
0.000214583
-3.48562e-06
0.000215601
0.000215791
-4.66813e-06
-1.06994e-06
0.000188662
-2.19175e-06
0.000215705
-3.31563e-06
0.000216725
0.000216914
-4.43837e-06
-1.01585e-06
0.000189678
-2.08082e-06
0.00021677
-3.14696e-06
0.000217791
0.000217978
-4.21073e-06
-9.62523e-07
0.00019064
-1.97147e-06
0.000217779
-2.98082e-06
0.0002188
0.000218984
-3.98679e-06
-9.1029e-07
0.000191551
-1.86436e-06
0.000218733
-2.81821e-06
0.000219754
0.000219933
-3.76786e-06
-8.5941e-07
0.00019241
-1.76004e-06
0.000219633
-2.65994e-06
0.000220654
0.000220828
-3.55498e-06
-8.10095e-07
0.00019322
-1.65896e-06
0.000220482
-2.50664e-06
0.000221501
0.000221671
-3.34898e-06
-7.62504e-07
0.000193983
-1.56141e-06
0.000221281
-2.35879e-06
0.000222299
0.000222462
-3.15047e-06
-7.16752e-07
0.000194699
-1.46765e-06
0.000222032
-2.21674e-06
0.000223048
0.000223206
-2.95989e-06
-6.72917e-07
0.000195372
-1.37783e-06
0.000222737
-2.08074e-06
0.000223751
0.000223902
-2.77753e-06
-6.3105e-07
0.000196003
-1.29207e-06
0.000223398
-1.95092e-06
0.00022441
0.000224555
-2.60357e-06
-5.91185e-07
0.000196594
-1.21041e-06
0.000224017
-1.82733e-06
0.000225027
0.000225166
-2.43807e-06
-5.53319e-07
0.000197148
-1.13283e-06
0.000224597
-1.71e-06
0.000225604
0.000225737
-2.28101e-06
-5.17423e-07
0.000197665
-1.05932e-06
0.000225139
-1.59884e-06
0.000226143
0.00022627
-2.13229e-06
-4.8348e-07
0.000198149
-9.89798e-07
0.000225645
-1.49374e-06
0.000226647
0.000226768
-1.99175e-06
-4.5143e-07
0.0001986
-9.24188e-07
0.000226118
-1.39457e-06
0.000227118
0.000227233
-1.85919e-06
-4.21236e-07
0.000199021
-8.62368e-07
0.000226559
-1.30116e-06
0.000227556
0.000227666
-1.73438e-06
-3.9283e-07
0.000199414
-8.04216e-07
0.00022697
-1.21331e-06
0.000227965
0.00022807
-1.61705e-06
-3.66146e-07
0.00019978
-7.49601e-07
0.000227354
-1.13082e-06
0.000228347
0.000228446
-1.50689e-06
-3.41123e-07
0.000200121
-6.98377e-07
0.000227711
-1.05346e-06
0.000228702
0.000228796
-1.40362e-06
-3.17679e-07
0.000200439
-6.50393e-07
0.000228044
-9.81003e-07
0.000229032
0.000229122
-1.30693e-06
-2.95748e-07
0.000200735
-6.0549e-07
0.000228353
-9.1323e-07
0.00022934
0.000229425
-1.21651e-06
-2.75242e-07
0.00020101
-5.63532e-07
0.000228642
-8.49908e-07
0.000229626
0.000229707
-1.13204e-06
-2.56096e-07
0.000201266
-5.24373e-07
0.00022891
-7.90807e-07
0.000229893
0.00022997
-1.05321e-06
-2.38243e-07
0.000201504
-4.87853e-07
0.000229159
-7.35696e-07
0.000230141
0.000230214
-9.79719e-07
-2.21618e-07
0.000201726
-4.53822e-07
0.000229392
-6.84355e-07
0.000230371
0.000230441
-9.11292e-07
-2.06136e-07
0.000201932
-4.2215e-07
0.000229608
-6.36584e-07
0.000230586
0.000230652
-8.47624e-07
-1.91743e-07
0.000202124
-3.92705e-07
0.000229809
-5.92173e-07
0.000230785
0.000230848
-7.8844e-07
-1.78366e-07
0.000202302
-3.65359e-07
0.000229996
-5.50929e-07
0.000230971
0.000231031
-7.33484e-07
-1.65959e-07
0.000202468
-3.39987e-07
0.00023017
-5.12657e-07
0.000231143
0.0002312
-6.82496e-07
-1.54459e-07
0.000202623
-3.16468e-07
0.000230332
-4.77185e-07
0.000231304
0.000231358
-6.35248e-07
-1.43812e-07
0.000202766
-2.94678e-07
0.000230482
-4.44347e-07
0.000231454
0.000231506
-5.91508e-07
-1.33957e-07
0.0002029
-2.74531e-07
0.000230623
-4.13977e-07
0.000231593
0.000231643
-5.51056e-07
-1.24854e-07
0.000203025
-2.55929e-07
0.000230754
-3.85933e-07
0.000231723
0.00023177
-5.13698e-07
-1.16458e-07
0.000203142
-2.38765e-07
0.000230876
-3.60055e-07
0.000231845
0.00023189
-4.79256e-07
-1.08727e-07
0.00020325
-2.22954e-07
0.000230991
-3.36229e-07
0.000231958
0.000232001
-4.47537e-07
-1.0161e-07
0.000203352
-2.08424e-07
0.000231097
-3.14326e-07
0.000232064
0.000232105
-4.18382e-07
-9.50844e-08
0.000203447
-1.9509e-07
0.000231197
-2.94237e-07
0.000232163
0.000232202
-3.91637e-07
-8.91067e-08
0.000203536
-1.82884e-07
0.000231291
-2.75844e-07
0.000232256
0.000232294
-3.67161e-07
-8.36498e-08
0.00020362
-1.71741e-07
0.000231379
-2.59056e-07
0.000232343
0.00023238
-3.44819e-07
-7.8679e-08
0.000203698
-1.61608e-07
0.000231462
-2.43777e-07
0.000232425
0.00023246
-3.24496e-07
-7.4176e-08
0.000203773
-1.52412e-07
0.000231541
-2.29941e-07
0.000232503
0.000232536
-3.06073e-07
-7.01098e-08
0.000203843
-1.4412e-07
0.000231615
-2.17455e-07
0.000232576
0.000232608
-2.89459e-07
-6.64648e-08
0.000203909
-1.36684e-07
0.000231685
-2.06251e-07
0.000232646
0.000232677
-2.74551e-07
-6.32041e-08
0.000203972
-1.30055e-07
0.000231752
-1.96271e-07
0.000232712
0.000232742
-2.61285e-07
-6.03265e-08
0.000204033
-1.24205e-07
0.000231815
-1.87465e-07
0.000232775
0.000232804
-2.49567e-07
-5.78124e-08
0.00020409
-1.19093e-07
0.000231877
-1.79776e-07
0.000232836
0.000232863
-2.39348e-07
-5.5648e-08
0.000204146
-1.14701e-07
0.000231936
-1.73173e-07
0.000232894
0.000232921
-2.30563e-07
-5.38193e-08
0.0002042
-1.10998e-07
0.000231993
-1.67609e-07
0.000232951
0.000232976
-2.23166e-07
-5.23162e-08
0.000204252
-1.07973e-07
0.000232049
-1.63053e-07
0.000233006
0.00023303
-2.17113e-07
-5.11266e-08
0.000204303
-1.05599e-07
0.000232103
-1.59485e-07
0.00023306
0.000233083
-2.1238e-07
-5.02558e-08
0.000204354
-1.03863e-07
0.000232157
-1.56889e-07
0.000233113
0.000233135
-2.08932e-07
-4.96924e-08
0.000204403
-1.02766e-07
0.00023221
-1.55245e-07
0.000233165
0.000233187
-2.06757e-07
-4.94361e-08
0.000204453
-1.02294e-07
0.000232263
-1.54555e-07
0.000233218
0.000233238
-2.05844e-07
-4.94847e-08
0.000204502
-1.02451e-07
0.000232316
-1.54812e-07
0.00023327
0.000233289
-2.06193e-07
-4.98344e-08
0.000204552
-1.03237e-07
0.000232369
-1.56013e-07
0.000233323
0.000233341
-2.07805e-07
-5.04932e-08
0.000204602
-1.04659e-07
0.000232423
-1.58174e-07
0.000233376
0.000233394
-2.10697e-07
-5.14629e-08
0.000204654
-1.06727e-07
0.000232478
-1.61314e-07
0.000233431
0.000233447
-2.14884e-07
-5.27556e-08
0.000204707
-1.09454e-07
0.000232535
-1.65449e-07
0.000233487
0.000233502
-2.20404e-07
-5.43807e-08
0.000204761
-1.12861e-07
0.000232594
-1.70615e-07
0.000233545
0.000233559
-2.27278e-07
-5.63416e-08
0.000204817
-1.16971e-07
0.000232654
-1.7683e-07
0.000233605
0.000233618
-2.35565e-07
-5.86513e-08
0.000204876
-1.2181e-07
0.000232717
-1.84149e-07
0.000233667
0.000233679
-2.45318e-07
-6.13262e-08
0.000204937
-1.27408e-07
0.000232783
-1.92609e-07
0.000233732
0.000233743
-2.56591e-07
-6.43848e-08
0.000205002
-1.33798e-07
0.000232853
-2.02269e-07
0.000233801
0.00023381
-2.69466e-07
-6.78575e-08
0.00020507
-1.41019e-07
0.000232926
-2.13196e-07
0.000233873
0.000233881
-2.8402e-07
-7.17561e-08
0.000205141
-1.49131e-07
0.000233003
-2.25459e-07
0.000233949
0.000233956
-3.00355e-07
-7.61063e-08
0.000205217
-1.5818e-07
0.000233085
-2.39135e-07
0.00023403
0.000234035
-3.18564e-07
-8.09276e-08
0.000205298
-1.68225e-07
0.000233173
-2.54308e-07
0.000234116
0.00023412
-3.38769e-07
-8.62633e-08
0.000205385
-1.79322e-07
0.000233266
-2.71078e-07
0.000234208
0.00023421
-3.61105e-07
-9.21478e-08
0.000205477
-1.91552e-07
0.000233365
-2.89556e-07
0.000234306
0.000234306
-3.85707e-07
-9.86137e-08
0.000205575
-2.04995e-07
0.000233472
-3.09861e-07
0.000234411
0.000234409
-4.1275e-07
-1.05707e-07
0.000205681
-2.19728e-07
0.000233586
-3.32126e-07
0.000234523
0.000234519
-4.42392e-07
-1.13473e-07
0.000205794
-2.35858e-07
0.000233708
-3.56494e-07
0.000234644
0.000234637
-4.74831e-07
-1.2196e-07
0.000205916
-2.53484e-07
0.00023384
-3.83119e-07
0.000234773
0.000234764
-5.1028e-07
-1.31226e-07
0.000206048
-2.72727e-07
0.000233981
-4.12177e-07
0.000234913
0.000234901
-5.48972e-07
-1.4133e-07
0.000206189
-2.93708e-07
0.000234133
-4.43861e-07
0.000235063
0.000235049
-5.91154e-07
-1.52344e-07
0.000206341
-3.16566e-07
0.000234298
-4.78383e-07
0.000235225
0.000235207
-6.37105e-07
-1.64339e-07
0.000206506
-3.41454e-07
0.000234475
-5.15962e-07
0.000235399
0.000235378
-6.87129e-07
-1.77397e-07
0.000206683
-3.68527e-07
0.000234666
-5.56854e-07
0.000235588
0.000235563
-7.4155e-07
-1.91599e-07
0.000206875
-3.97985e-07
0.000234872
-6.01323e-07
0.000235791
0.000235763
-8.00733e-07
-2.07038e-07
0.000207082
-4.3001e-07
0.000235095
-6.49665e-07
0.000236011
0.000235978
-8.65075e-07
-2.2382e-07
0.000207305
-4.64816e-07
0.000235336
-7.02215e-07
0.000236248
0.000236211
-9.35001e-07
-2.42067e-07
0.000207548
-5.0265e-07
0.000235597
-7.5932e-07
0.000236505
0.000236462
-1.01099e-06
-2.61897e-07
0.000207809
-5.43767e-07
0.000235879
-8.21368e-07
0.000236782
0.000236735
-1.09355e-06
-2.83453e-07
0.000208093
-5.88438e-07
0.000236184
-8.88789e-07
0.000237083
0.000237029
-1.18325e-06
-3.06881e-07
0.0002084
-6.36985e-07
0.000236514
-9.62037e-07
0.000237408
0.000237348
-1.28069e-06
-3.32342e-07
0.000208732
-6.89733e-07
0.000236871
-1.04163e-06
0.00023776
0.000237693
-1.38655e-06
-3.60019e-07
0.000209092
-7.47062e-07
0.000237258
-1.12811e-06
0.000238141
0.000238066
-1.50157e-06
-3.90105e-07
0.000209482
-8.09377e-07
0.000237677
-1.2221e-06
0.000238553
0.000238471
-1.62657e-06
-4.22827e-07
0.000209905
-8.77116e-07
0.000238132
-1.32427e-06
0.000239001
0.000238909
-1.76242e-06
-4.58421e-07
0.000210363
-9.50774e-07
0.000238624
-1.43535e-06
0.000239485
0.000239383
-1.91009e-06
-4.97142e-07
0.000210861
-1.03089e-06
0.000239158
-1.55614e-06
0.00024001
0.000239898
-2.07067e-06
-5.39285e-07
0.0002114
-1.11806e-06
0.000239737
-1.68754e-06
0.00024058
0.000240456
-2.24531e-06
-5.85165e-07
0.000211985
-1.21294e-06
0.000240364
-1.83054e-06
0.000241197
0.000241061
-2.43533e-06
-6.35138e-07
0.00021262
-1.31625e-06
0.000241045
-1.98619e-06
0.000241867
0.000241716
-2.64213e-06
-6.89594e-07
0.00021331
-1.42876e-06
0.000241785
-2.15571e-06
0.000242594
0.000242428
-2.86729e-06
-7.48955e-07
0.000214059
-1.55139e-06
0.000242587
-2.34039e-06
0.000243383
0.0002432
-3.11256e-06
-8.13709e-07
0.000214872
-1.6851e-06
0.000243458
-2.54171e-06
0.00024424
0.000244038
-3.37986e-06
-8.84396e-07
0.000215757
-1.83097e-06
0.000244405
-2.76129e-06
0.00024517
0.000244948
-3.67132e-06
-9.61604e-07
0.000216718
-1.99022e-06
0.000245434
-3.00094e-06
0.000246181
0.000245937
-3.98932e-06
-1.046e-06
0.000217764
-2.16419e-06
0.000246552
-3.26264e-06
0.000247279
0.000247011
-4.3365e-06
-1.13833e-06
0.000218903
-2.35439e-06
0.000247768
-3.54864e-06
0.000248474
0.000248178
-4.71578e-06
-1.2394e-06
0.000220142
-2.56248e-06
0.000249091
-3.86145e-06
0.000249773
0.000249447
-5.13045e-06
-1.35016e-06
0.000221492
-2.79038e-06
0.000250531
-4.20386e-06
0.000251186
0.000250827
-5.58419e-06
-1.47166e-06
0.000222964
-3.04017e-06
0.0002521
-4.57902e-06
0.000252725
0.000252329
-6.08111e-06
-1.60508e-06
0.000224569
-3.31427e-06
0.000253809
-4.99046e-06
0.000254401
0.000253965
-6.62585e-06
-1.75177e-06
0.000226321
-3.61537e-06
0.000255673
-5.4422e-06
0.000256228
0.000255746
-7.22364e-06
-1.91327e-06
0.000228234
-3.94654e-06
0.000257706
-5.93876e-06
0.00025822
0.000257688
-7.88039e-06
-2.09132e-06
0.000230325
-4.31127e-06
0.000259926
-6.4853e-06
0.000260394
0.000259805
-8.6028e-06
-2.2879e-06
0.000232613
-4.71353e-06
0.000262351
-7.08766e-06
0.000262768
0.000262116
-9.39847e-06
-2.50531e-06
0.000235118
-5.15788e-06
0.000265004
-7.75252e-06
0.000265363
0.00026464
-1.02761e-05
-2.74617e-06
0.000237865
-5.64952e-06
0.000267907
-8.48757e-06
0.000268201
0.000267398
-1.12456e-05
-3.01352e-06
0.000240878
-6.19449e-06
0.000271088
-9.30163e-06
0.000271308
0.000270414
-1.23184e-05
-3.31089e-06
0.000244189
-6.79976e-06
0.000274577
-1.02049e-05
0.000274713
0.000273717
-1.35077e-05
-3.64239e-06
0.000247831
-7.47344e-06
0.000278408
-1.12092e-05
0.000278449
0.000277336
-1.48286e-05
-4.01286e-06
0.000251844
-8.22501e-06
0.00028262
-1.23284e-05
0.000282552
0.000281307
-1.6299e-05
-4.42796e-06
0.000256272
-9.06558e-06
0.000287258
-1.35785e-05
0.000287065
0.000285668
-1.79394e-05
-4.89441e-06
0.000261166
-1.00082e-05
0.000292372
-1.49786e-05
0.000292036
0.000290464
-1.97742e-05
-5.42017e-06
0.000266587
-1.10685e-05
0.00029802
-1.65511e-05
0.000297518
0.000295744
-2.18318e-05
-6.01481e-06
0.000272601
-1.2265e-05
0.00030427
-1.83226e-05
0.000303576
0.000301568
-2.41462e-05
-6.68979e-06
0.000279291
-1.36197e-05
0.0003112
-2.03252e-05
0.000310281
0.000308
-2.67576e-05
-7.45902e-06
0.00028675
-1.51596e-05
0.000318901
-2.2597e-05
0.000317719
0.000315118
-2.97142e-05
-8.33944e-06
0.00029509
-1.69172e-05
0.000327479
-2.51847e-05
0.000325986
0.000323007
-3.30744e-05
-9.35186e-06
0.000304442
-1.89324e-05
0.000337059
-2.81449e-05
0.000335199
0.000331771
-3.69087e-05
-1.0522e-05
0.000314964
-2.12542e-05
0.000347791
-3.15471e-05
0.000345492
0.000341527
-4.13035e-05
-1.18822e-05
0.000326846
-2.39438e-05
0.000359853
-3.54776e-05
0.000357025
0.000352415
-4.63648e-05
-1.3473e-05
0.000340319
-2.7078e-05
0.000373458
-4.00439e-05
0.000369991
0.000364595
-5.22245e-05
-1.53456e-05
0.000355664
-3.07541e-05
0.000388866
-4.53818e-05
0.000384619
0.000378261
-5.90472e-05
-1.75672e-05
0.000373232
-3.50969e-05
0.000406396
-5.16641e-05
0.000401186
0.000393638
-6.7041e-05
-2.02216e-05
0.000393453
-4.02673e-05
0.000426442
-5.91133e-05
0.000420032
0.000410995
-7.64707e-05
-2.34295e-05
0.000416883
-4.64787e-05
0.000449491
-6.80186e-05
0.000441572
0.000430654
-8.76772e-05
-2.73246e-05
0.000444207
-5.40103e-05
0.000476177
-7.87627e-05
0.000466324
0.000452994
-0.000101103
-3.21521e-05
0.000476359
-6.32476e-05
0.000507272
-9.1853e-05
0.00049493
0.000478474
-0.000117333
-3.81255e-05
0.000514485
-7.47069e-05
0.000543854
-0.000107986
0.000528209
0.000507626
-0.000137138
-4.57481e-05
0.000560233
-8.91218e-05
0.000587227
-0.000128103
0.00056719
0.000541093
-0.00016157
-5.54692e-05
0.000615702
-0.000107533
0.000639291
-0.000153549
0.000613206
0.000579587
-0.000192043
-6.82177e-05
0.00068392
-0.000131419
0.000702492
-0.000186203
0.00066799
0.000623927
-0.000230543
-8.52528e-05
0.000769173
-0.000163075
0.000780314
-0.000228818
0.000733733
0.000674912
-0.000279803
-0.000108056
0.000877229
-0.000205595
0.000877853
-0.000285518
0.000813656
0.000733239
-0.000343846
-0.000140622
0.00101785
-0.000264634
0.00100187
-0.000362269
0.000911291
0.000799091
-0.000428121
-0.000184211
0.00120206
-0.000346364
0.00116402
-0.000469676
0.0010346
0.000871627
-0.000542212
-0.000245389
0.00144745
-0.000462809
0.00138144
-0.000620209
0.001192
0.000947649
-0.000696232
-0.000348304
0.00179576
-0.000637662
0.0016708
-0.000850433
0.00140477
0.00102537
-0.000928158
-0.000401949
0.0021977
-0.000806467
0.00207531
-0.00114583
0.00174414
0.0011222
-0.00124266
-0.000769384
-0.00140683
-0.00178792
-0.00195607
0.000176294
-0.000198058
0.000352315
-0.000235729
0.000527943
-0.000243264
0.000709031
-0.000193762
0.000863611
-1.73442e-05
0.000916944
0.00026339
0.000879854
0.000469442
0.000792608
0.00055899
0.000684007
0.000551458
0.000583775
0.000479855
0.000506106
0.000397595
0.000445767
0.000335098
0.000397548
0.000284293
0.000358566
0.000236813
0.000326745
0.000193595
0.000300465
0.000157667
0.000278631
0.000129165
0.000260477
0.000106564
0.00024537
8.83665e-05
0.000232778
7.35012e-05
0.000222275
6.12051e-05
0.000213529
5.09209e-05
0.00020628
4.22349e-05
0.000200318
3.4838e-05
0.000195471
2.84947e-05
0.000191592
2.30253e-05
0.000188561
1.82893e-05
0.00018627
1.41768e-05
0.000184628
1.06005e-05
0.000183554
7.49034e-06
0.000182974
4.78972e-06
0.000182826
2.45158e-06
0.000183057
4.33751e-07
0.000183609
-1.30409e-06
0.000184431
-2.79228e-06
0.00018548
-4.05111e-06
0.000186718
-5.09867e-06
0.000188108
-5.95739e-06
0.000189619
-6.64832e-06
0.000191221
-7.19003e-06
0.000192889
-7.59936e-06
0.000194602
-7.8917e-06
0.000196338
-8.08106e-06
0.00019808
-8.18036e-06
0.000199814
-8.20173e-06
0.000201528
-8.15651e-06
0.000203211
-8.05499e-06
0.000204855
-7.90637e-06
0.000206452
-7.71894e-06
0.000207998
-7.50015e-06
0.000209487
-7.25668e-06
0.000210918
-6.99438e-06
0.000212287
-6.71841e-06
0.000213595
-6.43329e-06
0.00021484
-6.14289e-06
0.000216022
-5.85055e-06
0.000217143
-5.55909e-06
0.000218203
-5.27086e-06
0.000219204
-4.98779e-06
0.000220148
-4.71147e-06
0.000221036
-4.44315e-06
0.000221871
-4.18382e-06
0.000222654
-3.93419e-06
0.000223389
-3.69477e-06
0.000224078
-3.46589e-06
0.000224722
-3.24773e-06
0.000225324
-3.04035e-06
0.000225887
-2.84366e-06
0.000226412
-2.65753e-06
0.000226902
-2.48174e-06
0.000227359
-2.31603e-06
0.000227784
-2.16007e-06
0.000228181
-2.01351e-06
0.00022855
-1.87599e-06
0.000228893
-1.74712e-06
0.000229213
-1.6265e-06
0.00022951
-1.51374e-06
0.000229787
-1.40843e-06
0.000230044
-1.31019e-06
0.000230283
-1.21864e-06
0.000230505
-1.13339e-06
0.000230711
-1.0541e-06
0.000230903
-9.80404e-07
0.000231082
-9.1198e-07
0.000231248
-8.4852e-07
0.000231402
-7.89723e-07
0.000231546
-7.35296e-07
0.00023168
-6.84981e-07
0.000231805
-6.38514e-07
0.000231921
-5.95667e-07
0.00023203
-5.56224e-07
0.000232131
-5.19975e-07
0.000232226
-4.86717e-07
0.000232316
-4.56287e-07
0.000232399
-4.28516e-07
0.000232478
-4.03252e-07
0.000232552
-3.80359e-07
0.000232622
-3.59707e-07
0.000232689
-3.41188e-07
0.000232753
-3.24694e-07
0.000232813
-3.10144e-07
0.000232871
-2.97446e-07
0.000232927
-2.86535e-07
0.000232981
-2.77342e-07
0.000233034
-2.69831e-07
0.000233086
-2.63946e-07
0.000233136
-2.59669e-07
0.000233187
-2.56971e-07
0.000233237
-2.55841e-07
0.000233287
-2.56286e-07
0.000233337
-2.58296e-07
0.000233388
-2.61896e-07
0.000233441
-2.67109e-07
0.000233494
-2.73966e-07
0.000233549
-2.82519e-07
0.000233607
-2.92826e-07
0.000233666
-3.04946e-07
0.000233729
-3.18965e-07
0.000233794
-3.34966e-07
0.000233863
-3.53057e-07
0.000233936
-3.73351e-07
0.000234014
-3.95985e-07
0.000234096
-4.21095e-07
0.000234184
-4.4885e-07
0.000234277
-4.79427e-07
0.000234378
-5.13022e-07
0.000234485
-5.4986e-07
0.0002346
-5.90167e-07
0.000234724
-6.34211e-07
0.000234858
-6.82276e-07
0.000235001
-7.3468e-07
0.000235156
-7.91766e-07
0.000235323
-8.53901e-07
0.000235503
-9.21497e-07
0.000235697
-9.95e-07
0.000235907
-1.07491e-06
0.000236133
-1.16175e-06
0.000236379
-1.25611e-06
0.000236644
-1.35861e-06
0.00023693
-1.46997e-06
0.000237241
-1.59093e-06
0.000237576
-1.72234e-06
0.00023794
-1.8651e-06
0.000238334
-2.02021e-06
0.00023876
-2.18877e-06
0.000239222
-2.37198e-06
0.000239722
-2.57115e-06
0.000240265
-2.78775e-06
0.000240853
-3.02335e-06
0.00024149
-3.27973e-06
0.000242182
-3.5588e-06
0.000242932
-3.86272e-06
0.000243746
-4.19386e-06
0.000244629
-4.55484e-06
0.000245589
-4.94856e-06
0.00024663
-5.37825e-06
0.000247762
-5.84752e-06
0.000248992
-6.36037e-06
0.000250329
-6.9213e-06
0.000251783
-7.53534e-06
0.000253366
-8.20814e-06
0.000255088
-8.94606e-06
0.000256964
-9.75626e-06
0.000259008
-1.06469e-05
0.000261237
-1.16271e-05
0.000263668
-1.27075e-05
0.000266323
-1.39e-05
0.000269222
-1.52183e-05
0.000272393
-1.66782e-05
0.000275862
-1.82979e-05
0.000279662
-2.00987e-05
0.000283827
-2.21049e-05
0.000288399
-2.43455e-05
0.000293421
-2.6854e-05
0.000298945
-2.96703e-05
0.000305029
-3.28415e-05
0.000311739
-3.64239e-05
0.000319149
-4.04847e-05
0.000327345
-4.51054e-05
0.000336426
-5.03843e-05
0.000346504
-5.6442e-05
0.000357705
-6.34264e-05
0.000370179
-7.15207e-05
0.000384091
-8.09536e-05
0.000399633
-9.20126e-05
0.000417018
-0.000105062
0.000436482
-0.000120567
0.000458277
-0.000139128
0.000482664
-0.000161525
0.000509866
-0.000188773
0.00054005
-0.000222227
0.000573169
-0.000263662
0.000608838
-0.000315472
0.000645841
-0.000380849
0.00068177
-0.00046405
0.000710385
-0.000570826
0.000722185
-0.000708032
0.000679883
-0.000885856
0.00054116
-0.00110393
-0.00141491
0.000112053
-0.000310111
0.000219862
-0.000343539
0.000318199
-0.000341601
0.00039912
-0.000274683
0.00048632
-0.000104543
0.000559134
0.000190576
0.000580808
0.000447767
0.000565734
0.000574063
0.000524834
0.000592356
0.000467798
0.000536892
0.000413401
0.000451993
0.00036895
0.00037955
0.000335066
0.000318177
0.000309376
0.000262503
0.000288513
0.000214458
0.000270592
0.000175588
0.000255026
0.000144731
0.000241582
0.000120009
0.00023003
9.99186e-05
0.000220152
8.33792e-05
0.000211756
6.9601e-05
0.000204674
5.80023e-05
0.00019876
4.81494e-05
0.000193883
3.97148e-05
0.00018993
3.24477e-05
0.0001868
2.61556e-05
0.000184402
2.06873e-05
0.000182655
1.59242e-05
0.000181484
1.17713e-05
0.000180822
8.15207e-06
0.000180608
5.0039e-06
0.000180786
2.27347e-06
0.000181306
-8.62973e-08
0.000182118
-2.11554e-06
0.000183173
-3.84738e-06
0.00018443
-5.30845e-06
0.000185854
-6.52306e-06
0.000187413
-7.51555e-06
0.000189073
-8.30897e-06
0.000190809
-8.92565e-06
0.000192595
-9.38554e-06
0.00019441
-9.70695e-06
0.000196236
-9.90672e-06
0.000198056
-1.00005e-05
0.000199857
-1.00028e-05
0.000201628
-9.92713e-06
0.000203358
-9.78557e-06
0.000205041
-9.58921e-06
0.00020667
-9.34796e-06
0.000208241
-9.07071e-06
0.000209749
-8.76536e-06
0.000211194
-8.43888e-06
0.000212573
-8.09738e-06
0.000213886
-7.74617e-06
0.000215133
-7.38982e-06
0.000216314
-7.03222e-06
0.000217432
-6.67666e-06
0.000218487
-6.32587e-06
0.000219481
-5.98209e-06
0.000220417
-5.64713e-06
0.000221296
-5.32241e-06
0.000222121
-5.009e-06
0.000222895
-4.70772e-06
0.000223619
-4.4191e-06
0.000224297
-4.14351e-06
0.00022493
-3.88108e-06
0.000225522
-3.63184e-06
0.000226074
-3.39566e-06
0.000226589
-3.17234e-06
0.000227068
-2.96158e-06
0.000227515
-2.76303e-06
0.000227932
-2.57628e-06
0.000228319
-2.40088e-06
0.000228679
-2.23638e-06
0.000229015
-2.0823e-06
0.000229326
-1.93815e-06
0.000229616
-1.80345e-06
0.000229885
-1.67769e-06
0.000230135
-1.56042e-06
0.000230368
-1.45116e-06
0.000230584
-1.34946e-06
0.000230785
-1.25488e-06
0.000230971
-1.16701e-06
0.000231145
-1.08545e-06
0.000231306
-1.00982e-06
0.000231456
-9.39752e-07
0.000231596
-8.74911e-07
0.000231726
-8.14971e-07
0.000231847
-7.59636e-07
0.00023196
-7.08621e-07
0.000232065
-6.61657e-07
0.000232164
-6.18493e-07
0.000232256
-5.78915e-07
0.000232342
-5.42693e-07
0.000232423
-5.09646e-07
0.0002325
-4.79584e-07
0.000232572
-4.52344e-07
0.00023264
-4.27773e-07
0.000232704
-4.05743e-07
0.000232766
-3.8613e-07
0.000232825
-3.68819e-07
0.000232881
-3.53718e-07
0.000232935
-3.40737e-07
0.000232987
-3.29813e-07
0.000233039
-3.20875e-07
0.000233088
-3.13885e-07
0.000233138
-3.08793e-07
0.000233186
-3.05592e-07
0.000233235
-3.04261e-07
0.000233283
-3.04781e-07
0.000233332
-3.07177e-07
0.000233382
-3.1146e-07
0.000233432
-3.17658e-07
0.000233484
-3.25821e-07
0.000233537
-3.35999e-07
0.000233593
-3.48251e-07
0.000233651
-3.62666e-07
0.000233711
-3.79335e-07
0.000233774
-3.98362e-07
0.000233841
-4.1987e-07
0.000233912
-4.44005e-07
0.000233987
-4.70918e-07
0.000234066
-5.00774e-07
0.000234151
-5.33766e-07
0.000234242
-5.70119e-07
0.000234339
-6.10062e-07
0.000234443
-6.53852e-07
0.000234555
-7.0177e-07
0.000234675
-7.5412e-07
0.000234804
-8.11253e-07
0.000234942
-8.73536e-07
0.000235092
-9.41376e-07
0.000235253
-1.01522e-06
0.000235427
-1.09554e-06
0.000235615
-1.18289e-06
0.000235818
-1.27783e-06
0.000236037
-1.381e-06
0.000236274
-1.49309e-06
0.000236531
-1.61485e-06
0.000236808
-1.7471e-06
0.000237108
-1.89076e-06
0.000237432
-2.04679e-06
0.000237783
-2.21629e-06
0.000238163
-2.40043e-06
0.000238575
-2.6005e-06
0.000239021
-2.81792e-06
0.000239504
-3.05425e-06
0.000240028
-3.31119e-06
0.000240595
-3.59064e-06
0.00024121
-3.89464e-06
0.000241877
-4.22549e-06
0.0002426
-4.5857e-06
0.000243384
-4.97805e-06
0.000244234
-5.40562e-06
0.000245158
-5.87181e-06
0.00024616
-6.38043e-06
0.000247248
-6.93565e-06
0.00024843
-7.54218e-06
0.000249714
-8.20527e-06
0.000251109
-8.93076e-06
0.000252626
-9.72523e-06
0.000254276
-1.05961e-05
0.000256072
-1.15516e-05
0.000258026
-1.26011e-05
0.000260154
-1.37554e-05
0.000262473
-1.50265e-05
0.000265001
-1.64281e-05
0.000267759
-1.7976e-05
0.000270769
-1.96882e-05
0.000274056
-2.15854e-05
0.000277649
-2.36917e-05
0.000281579
-2.60348e-05
0.000285881
-2.8647e-05
0.000290593
-3.15662e-05
0.000295759
-3.48367e-05
0.000301429
-3.85108e-05
0.000307655
-4.26504e-05
0.0003145
-4.73294e-05
0.00032203
-5.26361e-05
0.000330323
-5.86767e-05
0.00033946
-6.55797e-05
0.000349536
-7.35015e-05
0.000360648
-8.26335e-05
0.000372906
-9.3211e-05
0.000386419
-0.000105525
0.000401296
-0.000119939
0.000417635
-0.000136906
0.000435505
-0.000156997
0.00045491
-0.00018093
0.000475754
-0.000209617
0.000497732
-0.000244204
0.000520217
-0.000286147
0.000541994
-0.000337249
0.000560881
-0.000399736
0.000573067