/*--------------------------------*- C++ -*----------------------------------*\
  =========                 |
  \\      /  F ield         | OpenFOAM: The Open Source CFD Toolbox
   \\    /   O peration     | Website:  https://openfoam.org
    \\  /    A nd           | Version:  dev
     \\/     M anipulation  |
\*---------------------------------------------------------------------------*/
FoamFile
{
    version     2.0;
    format      ascii;
    class       volVectorField;
    location    "11";
    object      U;
}
// * * * * * * * * * * * * * * * * * * * * * * * * * * * * * * * * * * * * * //

dimensions      [0 1 -1 0 0 0 0];

internalField   nonuniform List<vector> 
8000
(
(0.0997301 4.23838e-05 0)
(0.100145 -0.000303707 0)
(0.100367 -0.00098034 0)
(0.0995869 7.09014e-05 0)
(0.0996651 0.00018268 0)
(0.100915 -0.000306141 0)
(0.102428 -0.00248438 0)
(0.0997236 -0.000147483 0)
(0.0994989 0.000556556 0)
(0.101716 0.000888657 0)
(0.105063 -0.00212146 0)
(0.102092 0.000444908 0)
(0.0985593 0.00117154 0)
(0.101763 0.00339672 0)
(0.106727 0.00146389 0)
(0.107292 0.00453087 0)
(0.0959204 0.00206999 0)
(0.100054 0.00671747 0)
(0.105373 0.00826688 0)
(0.110756 0.0131276 0)
(0.0908515 0.00322921 0)
(0.0956062 0.00981905 0)
(0.0997914 0.015785 0)
(0.107422 0.0238373 0)
(0.083484 0.00439855 0)
(0.0883488 0.0117983 0)
(0.0906992 0.0206273 0)
(0.0971082 0.032038 0)
(0.0747175 0.00522159 0)
(0.0793862 0.0125049 0)
(0.0798617 0.0219748 0)
(0.0835914 0.0346356 0)
(0.0657933 0.0054984 0)
(0.0702757 0.0121809 0)
(0.0695919 0.0210154 0)
(0.070387 0.0322492 0)
(0.0576246 0.00540963 0)
(0.0621484 0.0112784 0)
(0.0610703 0.0191775 0)
(0.0596318 0.0279638 0)
(0.049917 0.00527708 0)
(0.0548494 0.010244 0)
(0.0541742 0.0173017 0)
(0.0516677 0.0241019 0)
(0.0427438 0.0049275 0)
(0.0484214 0.00913475 0)
(0.0483694 0.0154427 0)
(0.0455974 0.0210476 0)
(0.0365625 0.0039953 0)
(0.0428241 0.00768048 0)
(0.0431657 0.0132816 0)
(0.0405269 0.0182012 0)
(0.0318271 0.00275496 0)
(0.0379932 0.00598664 0)
(0.0384616 0.0108882 0)
(0.0361502 0.0152432 0)
(0.0284383 0.00177047 0)
(0.0339126 0.00454429 0)
(0.034335 0.00869988 0)
(0.0324332 0.0124273 0)
(0.0259235 0.001217 0)
(0.0305441 0.00359205 0)
(0.0308562 0.00697961 0)
(0.0293373 0.0100638 0)
(0.0238941 0.000949609 0)
(0.027812 0.00299814 0)
(0.0280158 0.00569044 0)
(0.0267922 0.00820766 0)
(0.0221639 0.000795885 0)
(0.025599 0.00256492 0)
(0.0257179 0.00469929 0)
(0.0247095 0.00675923 0)
(0.0206697 0.00067389 0)
(0.0237887 0.0021962 0)
(0.0238458 0.00390773 0)
(0.0230007 0.00560513 0)
(0.0193883 0.000566395 0)
(0.0222935 0.00186993 0)
(0.0223066 0.00326027 0)
(0.0215931 0.0046651 0)
(0.0182988 0.000473295 0)
(0.0210511 0.0015833 0)
(0.0210344 0.00272316 0)
(0.0204304 0.00388708 0)
(0.0173784 0.000394097 0)
(0.020016 0.00133338 0)
(0.0199812 0.00227288 0)
(0.0194691 0.00323583 0)
(0.0166054 0.00032695 0)
(0.019154 0.0011161 0)
(0.0191102 0.00189198 0)
(0.0186749 0.00268581 0)
(0.0159605 0.000269842 0)
(0.0184381 0.000927399 0)
(0.0183922 0.00156723 0)
(0.0180211 0.00221784 0)
(0.0154269 0.000221011 0)
(0.017847 0.000763545 0)
(0.0178038 0.00128846 0)
(0.0174862 0.00181728 0)
(0.0149899 0.000179015 0)
(0.0173633 0.000621227 0)
(0.0173259 0.00104781 0)
(0.0170531 0.00147268 0)
(0.0146369 0.000142702 0)
(0.0169726 0.000497519 0)
(0.0169428 0.000839229 0)
(0.0167076 0.00117501 0)
(0.014357 0.000111169 0)
(0.0166625 0.00038989 0)
(0.0166413 0.000657883 0)
(0.0164379 0.000917162 0)
(0.014141 8.37054e-05 0)
(0.0164226 0.000296212 0)
(0.0164102 0.000499955 0)
(0.0162338 0.000693448 0)
(0.0139806 5.97133e-05 0)
(0.0162439 0.000214628 0)
(0.0162399 0.000362353 0)
(0.0160869 0.000499273 0)
(0.0138689 3.86967e-05 0)
(0.0161184 0.000143652 0)
(0.0161223 0.000242687 0)
(0.0159895 0.000330978 0)
(0.0137992 1.94785e-05 0)
(0.0160388 8.17973e-05 0)
(0.0160499 0.000139021 0)
(0.0159349 0.000185644 0)
(0.0137682 5.44594e-06 0)
(0.0159991 3.08425e-05 0)
(0.0160167 5.10203e-05 0)
(0.0159176 6.1008e-05 0)
(0.0137649 -7.70684e-06 0)
(0.0159916 -1.43108e-05 0)
(0.0160171 -2.53796e-05 0)
(0.0159327 -4.65005e-05 0)
(0.0137898 -2.01285e-05 0)
(0.0160144 -5.44037e-05 0)
(0.0160471 -9.24373e-05 0)
(0.0159758 -0.000139689 0)
(0.0138392 -3.02264e-05 0)
(0.0160628 -8.78413e-05 0)
(0.0161016 -0.000148921 0)
(0.0160419 -0.000218522 0)
(0.0139079 -3.85458e-05 0)
(0.0161323 -0.000115634 0)
(0.0161768 -0.000195953 0)
(0.0161273 -0.000284037 0)
(0.0139928 -4.53862e-05 0)
(0.0162193 -0.000138542 0)
(0.0162691 -0.000234716 0)
(0.0162289 -0.00033797 0)
(0.014091 -5.09328e-05 0)
(0.0163209 -0.00015715 0)
(0.0163755 -0.000266165 0)
(0.0163435 -0.000381651 0)
(0.0141999 -5.53295e-05 0)
(0.016434 -0.000171937 0)
(0.016493 -0.000291123 0)
(0.0164684 -0.000416204 0)
(0.0143172 -5.8702e-05 0)
(0.0165563 -0.000183325 0)
(0.0166193 -0.000310311 0)
(0.0166012 -0.000442645 0)
(0.0144408 -6.11649e-05 0)
(0.0166854 -0.000191703 0)
(0.016752 -0.00032439 0)
(0.0167397 -0.000461915 0)
(0.0145688 -6.28231e-05 0)
(0.0168194 -0.00019743 0)
(0.0168892 -0.000333982 0)
(0.016882 -0.000474891 0)
(0.0146998 -6.37751e-05 0)
(0.0169565 -0.000200839 0)
(0.0170292 -0.000339659 0)
(0.0170265 -0.000482361 0)
(0.0148322 -6.41146e-05 0)
(0.0170953 -0.000202227 0)
(0.0171706 -0.000341911 0)
(0.0171717 -0.000485017 0)
(0.0149649 -6.39238e-05 0)
(0.0172345 -0.00020186 0)
(0.017312 -0.000341187 0)
(0.0173163 -0.000483526 0)
(0.0150968 -6.32778e-05 0)
(0.0173728 -0.0002 0)
(0.0174523 -0.000337944 0)
(0.0174594 -0.000478532 0)
(0.015227 -6.2247e-05 0)
(0.0175094 -0.00019689 0)
(0.0175906 -0.000332595 0)
(0.0176 -0.000470606 0)
(0.0153547 -6.08962e-05 0)
(0.0176434 -0.000192742 0)
(0.0177261 -0.000325499 0)
(0.0177374 -0.000460249 0)
(0.0154795 -5.92855e-05 0)
(0.0177743 -0.000187744 0)
(0.0178582 -0.000316974 0)
(0.0178711 -0.000447911 0)
(0.0156007 -5.74679e-05 0)
(0.0179015 -0.000182064 0)
(0.0179864 -0.000307309 0)
(0.0180005 -0.000433998 0)
(0.015718 -5.54899e-05 0)
(0.0180246 -0.000175852 0)
(0.0181104 -0.000296755 0)
(0.0181254 -0.000418866 0)
(0.0158311 -5.33908e-05 0)
(0.0181432 -0.000169244 0)
(0.0182297 -0.00028554 0)
(0.0182454 -0.000402833 0)
(0.0159397 -5.12058e-05 0)
(0.0182572 -0.000162357 0)
(0.0183442 -0.00027386 0)
(0.0183604 -0.000386174 0)
(0.0160438 -4.89664e-05 0)
(0.0183663 -0.000155292 0)
(0.0184538 -0.000261887 0)
(0.0184702 -0.00036913 0)
(0.0161432 -4.67012e-05 0)
(0.0184705 -0.000148135 0)
(0.0185583 -0.000249769 0)
(0.0185749 -0.000351907 0)
(0.0162379 -4.44335e-05 0)
(0.0185698 -0.000140963 0)
(0.0186578 -0.000237632 0)
(0.0186743 -0.000334678 0)
(0.0163279 -4.21828e-05 0)
(0.0186642 -0.000133839 0)
(0.0187523 -0.000225582 0)
(0.0187687 -0.000317594 0)
(0.0164132 -3.99642e-05 0)
(0.0187537 -0.000126814 0)
(0.0188419 -0.000213706 0)
(0.018858 -0.000300774 0)
(0.016494 -3.77914e-05 0)
(0.0188384 -0.000119932 0)
(0.0189266 -0.000202078 0)
(0.0189423 -0.000284319 0)
(0.0165704 -3.5675e-05 0)
(0.0189184 -0.00011323 0)
(0.0190066 -0.000190756 0)
(0.0190219 -0.00026831 0)
(0.0166424 -3.36239e-05 0)
(0.0189938 -0.000106733 0)
(0.0190819 -0.000179785 0)
(0.0190969 -0.000252809 0)
(0.0167102 -3.16451e-05 0)
(0.0190649 -0.000100463 0)
(0.0191529 -0.000169201 0)
(0.0191674 -0.000237866 0)
(0.016774 -2.97434e-05 0)
(0.0191318 -9.44359e-05 0)
(0.0192196 -0.000159029 0)
(0.0192336 -0.000223515 0)
(0.016834 -2.79218e-05 0)
(0.0191946 -8.86619e-05 0)
(0.0192822 -0.000149286 0)
(0.0192957 -0.000209778 0)
(0.0168902 -2.61818e-05 0)
(0.0192535 -8.31479e-05 0)
(0.019341 -0.000139983 0)
(0.0193539 -0.000196669 0)
(0.016943 -2.45247e-05 0)
(0.0193087 -7.78973e-05 0)
(0.019396 -0.000131126 0)
(0.0194084 -0.000184194 0)
(0.0169923 -2.29503e-05 0)
(0.0193604 -7.29096e-05 0)
(0.0194475 -0.000122714 0)
(0.0194593 -0.00017235 0)
(0.0170385 -2.14578e-05 0)
(0.0194088 -6.81821e-05 0)
(0.0194957 -0.000114744 0)
(0.019507 -0.000161132 0)
(0.0170817 -2.00468e-05 0)
(0.019454 -6.37108e-05 0)
(0.0195407 -0.000107208 0)
(0.0195514 -0.000150528 0)
(0.017122 -1.87148e-05 0)
(0.0194962 -5.94898e-05 0)
(0.0195827 -0.000100097 0)
(0.019593 -0.000140524 0)
(0.0171596 -1.74605e-05 0)
(0.0195356 -5.55123e-05 0)
(0.0196219 -9.33982e-05 0)
(0.0196317 -0.000131102 0)
(0.0171947 -1.62809e-05 0)
(0.0195724 -5.17702e-05 0)
(0.0196585 -8.70972e-05 0)
(0.0196678 -0.000122243 0)
(0.0172275 -1.51727e-05 0)
(0.0196067 -4.82551e-05 0)
(0.0196926 -8.11795e-05 0)
(0.0197014 -0.000113925 0)
(0.017258 -1.41332e-05 0)
(0.0196386 -4.49584e-05 0)
(0.0197243 -7.56298e-05 0)
(0.0197327 -0.000106126 0)
(0.0172864 -1.31589e-05 0)
(0.0196684 -4.18704e-05 0)
(0.0197539 -7.04314e-05 0)
(0.0197619 -9.88222e-05 0)
(0.0173128 -1.22476e-05 0)
(0.0196961 -3.89812e-05 0)
(0.0197814 -6.55674e-05 0)
(0.019789 -9.19909e-05 0)
(0.0173374 -1.13956e-05 0)
(0.0197219 -3.62809e-05 0)
(0.019807 -6.10223e-05 0)
(0.0198143 -8.56087e-05 0)
(0.0173604 -1.06003e-05 0)
(0.0197459 -3.37601e-05 0)
(0.0198309 -5.67801e-05 0)
(0.0198377 -7.96527e-05 0)
(0.0173817 -9.85874e-06 0)
(0.0197682 -3.14091e-05 0)
(0.019853 -5.28244e-05 0)
(0.0198596 -7.40993e-05 0)
(0.0174015 -9.16823e-06 0)
(0.019789 -2.92188e-05 0)
(0.0198737 -4.91389e-05 0)
(0.0198799 -6.8927e-05 0)
(0.0174199 -8.52532e-06 0)
(0.0198083 -2.71799e-05 0)
(0.0198928 -4.57091e-05 0)
(0.0198988 -6.41141e-05 0)
(0.0174371 -7.92772e-06 0)
(0.0198263 -2.52842e-05 0)
(0.0199107 -4.25205e-05 0)
(0.0199163 -5.96401e-05 0)
(0.0174531 -7.37215e-06 0)
(0.019843 -2.35229e-05 0)
(0.0199273 -3.95592e-05 0)
(0.0199327 -5.54855e-05 0)
(0.0174679 -6.85666e-06 0)
(0.0198586 -2.18891e-05 0)
(0.0199427 -3.68119e-05 0)
(0.0199479 -5.16305e-05 0)
(0.0174817 -6.37867e-06 0)
(0.019873 -2.03746e-05 0)
(0.0199571 -3.42653e-05 0)
(0.019962 -4.80576e-05 0)
(0.0174946 -5.93624e-06 0)
(0.0198865 -1.89719e-05 0)
(0.0199705 -3.1907e-05 0)
(0.0199751 -4.47498e-05 0)
(0.0175066 -5.52689e-06 0)
(0.0198991 -1.76745e-05 0)
(0.019983 -2.97259e-05 0)
(0.0199874 -4.16907e-05 0)
(0.0175177 -5.14887e-06 0)
(0.0199108 -1.64762e-05 0)
(0.0199946 -2.77119e-05 0)
(0.0199988 -3.88658e-05 0)
(0.0175281 -4.80017e-06 0)
(0.0199217 -1.53706e-05 0)
(0.0200054 -2.58536e-05 0)
(0.0200095 -3.62605e-05 0)
(0.0175378 -4.47897e-06 0)
(0.0199319 -1.43524e-05 0)
(0.0200155 -2.41423e-05 0)
(0.0200194 -3.38613e-05 0)
(0.0175469 -4.18328e-06 0)
(0.0199415 -1.34161e-05 0)
(0.020025 -2.25693e-05 0)
(0.0200287 -3.16559e-05 0)
(0.0175554 -3.91204e-06 0)
(0.0199504 -1.2557e-05 0)
(0.0200338 -2.11261e-05 0)
(0.0200374 -2.96331e-05 0)
(0.0175633 -3.66335e-06 0)
(0.0199587 -1.17703e-05 0)
(0.0200421 -1.98051e-05 0)
(0.0200455 -2.77816e-05 0)
(0.0175708 -3.43598e-06 0)
(0.0199666 -1.10522e-05 0)
(0.0200499 -1.85993e-05 0)
(0.0200532 -2.60915e-05 0)
(0.0175778 -3.22866e-06 0)
(0.019974 -1.0399e-05 0)
(0.0200572 -1.75024e-05 0)
(0.0200603 -2.45536e-05 0)
(0.0175844 -3.04091e-06 0)
(0.0199809 -9.80665e-06 0)
(0.0200641 -1.65081e-05 0)
(0.0200671 -2.316e-05 0)
(0.0175906 -2.87145e-06 0)
(0.0199875 -9.27226e-06 0)
(0.0200706 -1.56108e-05 0)
(0.0200735 -2.19029e-05 0)
(0.0175965 -2.71946e-06 0)
(0.0199937 -8.79299e-06 0)
(0.0200767 -1.48058e-05 0)
(0.0200795 -2.07751e-05 0)
(0.0176021 -2.58306e-06 0)
(0.0199996 -8.36512e-06 0)
(0.0200826 -1.40886e-05 0)
(0.0200853 -1.97714e-05 0)
(0.0176074 -2.46217e-06 0)
(0.0200052 -7.98754e-06 0)
(0.0200882 -1.3456e-05 0)
(0.0200908 -1.8885e-05 0)
(0.0176125 -2.35627e-06 0)
(0.0200106 -7.65776e-06 0)
(0.0200935 -1.29035e-05 0)
(0.020096 -1.81116e-05 0)
(0.0176174 -2.26498e-06 0)
(0.0200158 -7.37439e-06 0)
(0.0200986 -1.24288e-05 0)
(0.020101 -1.74468e-05 0)
(0.0176221 -2.18767e-06 0)
(0.0200208 -7.13526e-06 0)
(0.0201036 -1.20286e-05 0)
(0.0201059 -1.68871e-05 0)
(0.0176267 -2.12356e-06 0)
(0.0200257 -6.93938e-06 0)
(0.0201084 -1.17012e-05 0)
(0.0201106 -1.64293e-05 0)
(0.0176311 -2.07189e-06 0)
(0.0200304 -6.78516e-06 0)
(0.0201131 -1.14449e-05 0)
(0.0201153 -1.60712e-05 0)
(0.0176355 -2.03298e-06 0)
(0.0200351 -6.67252e-06 0)
(0.0201177 -1.12584e-05 0)
(0.0201198 -1.58104e-05 0)
(0.0176398 -2.0067e-06 0)
(0.0200397 -6.60109e-06 0)
(0.0201223 -1.11405e-05 0)
(0.0201242 -1.56455e-05 0)
(0.0176441 -1.99337e-06 0)
(0.0200443 -6.57007e-06 0)
(0.0201268 -1.10906e-05 0)
(0.0201287 -1.55761e-05 0)
(0.0176483 -1.99266e-06 0)
(0.0200488 -6.57934e-06 0)
(0.0201313 -1.11084e-05 0)
(0.0201331 -1.56025e-05 0)
(0.0176526 -2.00393e-06 0)
(0.0200534 -6.62868e-06 0)
(0.0201358 -1.11942e-05 0)
(0.0201375 -1.57244e-05 0)
(0.0176569 -2.02727e-06 0)
(0.020058 -6.71888e-06 0)
(0.0201404 -1.13492e-05 0)
(0.020142 -1.59432e-05 0)
(0.0176613 -2.06301e-06 0)
(0.0200628 -6.85073e-06 0)
(0.0201451 -1.15747e-05 0)
(0.0201466 -1.62601e-05 0)
(0.0176658 -2.1121e-06 0)
(0.0200676 -7.02531e-06 0)
(0.0201498 -1.18715e-05 0)
(0.0201513 -1.66774e-05 0)
(0.0176704 -2.17522e-06 0)
(0.0200725 -7.24386e-06 0)
(0.0201547 -1.22418e-05 0)
(0.0201561 -1.71977e-05 0)
(0.0176752 -2.25225e-06 0)
(0.0200777 -7.50721e-06 0)
(0.0201598 -1.26875e-05 0)
(0.0201611 -1.78247e-05 0)
(0.0176802 -2.34312e-06 0)
(0.020083 -7.81689e-06 0)
(0.0201651 -1.32123e-05 0)
(0.0201662 -1.8563e-05 0)
(0.0176853 -2.44806e-06 0)
(0.0200886 -8.17516e-06 0)
(0.0201706 -1.38196e-05 0)
(0.0201716 -1.94165e-05 0)
(0.0176907 -2.56786e-06 0)
(0.0200944 -8.58446e-06 0)
(0.0201763 -1.45134e-05 0)
(0.0201773 -2.03909e-05 0)
(0.0176964 -2.70432e-06 0)
(0.0201006 -9.04802e-06 0)
(0.0201824 -1.52979e-05 0)
(0.0201832 -2.14922e-05 0)
(0.0177025 -2.8583e-06 0)
(0.0201071 -9.56883e-06 0)
(0.0201888 -1.61784e-05 0)
(0.0201895 -2.27281e-05 0)
(0.0177088 -3.03093e-06 0)
(0.0201139 -1.01499e-05 0)
(0.0201956 -1.716e-05 0)
(0.0201962 -2.41061e-05 0)
(0.0177156 -3.22263e-06 0)
(0.0201212 -1.07943e-05 0)
(0.0202028 -1.8249e-05 0)
(0.0202032 -2.56353e-05 0)
(0.0177228 -3.4348e-06 0)
(0.020129 -1.15063e-05 0)
(0.0202104 -1.94525e-05 0)
(0.0202107 -2.73258e-05 0)
(0.0177305 -3.66867e-06 0)
(0.0201373 -1.2291e-05 0)
(0.0202186 -2.07789e-05 0)
(0.0202188 -2.91882e-05 0)
(0.0177387 -3.92566e-06 0)
(0.0201462 -1.31537e-05 0)
(0.0202274 -2.22368e-05 0)
(0.0202273 -3.12349e-05 0)
(0.0177475 -4.20794e-06 0)
(0.0201557 -1.40996e-05 0)
(0.0202367 -2.38351e-05 0)
(0.0202365 -3.34785e-05 0)
(0.017757 -4.51744e-06 0)
(0.0201658 -1.51352e-05 0)
(0.0202468 -2.55843e-05 0)
(0.0202464 -3.59339e-05 0)
(0.0177671 -4.85605e-06 0)
(0.0201768 -1.62667e-05 0)
(0.0202576 -2.74956e-05 0)
(0.020257 -3.86172e-05 0)
(0.017778 -5.22569e-06 0)
(0.0201885 -1.75018e-05 0)
(0.0202691 -2.95818e-05 0)
(0.0202683 -4.1546e-05 0)
(0.0177898 -5.62839e-06 0)
(0.0202012 -1.88484e-05 0)
(0.0202816 -3.18569e-05 0)
(0.0202806 -4.47392e-05 0)
(0.0178024 -6.06707e-06 0)
(0.0202149 -2.03157e-05 0)
(0.0202951 -3.4336e-05 0)
(0.0202938 -4.82178e-05 0)
(0.0178161 -6.54498e-06 0)
(0.0202296 -2.19139e-05 0)
(0.0203096 -3.7035e-05 0)
(0.020308 -5.20043e-05 0)
(0.0178308 -7.06585e-06 0)
(0.0202454 -2.3653e-05 0)
(0.0203252 -3.99715e-05 0)
(0.0203233 -5.6124e-05 0)
(0.0178467 -7.63314e-06 0)
(0.0202626 -2.55451e-05 0)
(0.0203421 -4.3165e-05 0)
(0.0203399 -6.06041e-05 0)
(0.0178639 -8.25036e-06 0)
(0.0202811 -2.76017e-05 0)
(0.0203603 -4.66364e-05 0)
(0.0203577 -6.54749e-05 0)
(0.0178824 -8.92127e-06 0)
(0.0203011 -2.98368e-05 0)
(0.02038 -5.04099e-05 0)
(0.0203771 -7.07693e-05 0)
(0.0179025 -9.65059e-06 0)
(0.0203227 -3.22663e-05 0)
(0.0204013 -5.45111e-05 0)
(0.0203979 -7.65228e-05 0)
(0.0179242 -1.0443e-05 0)
(0.020346 -3.49068e-05 0)
(0.0204243 -5.89681e-05 0)
(0.0204205 -8.27741e-05 0)
(0.0179477 -1.13046e-05 0)
(0.0203713 -3.77762e-05 0)
(0.0204492 -6.3811e-05 0)
(0.0204449 -8.95659e-05 0)
(0.0179732 -1.22415e-05 0)
(0.0203987 -4.08947e-05 0)
(0.0204762 -6.90731e-05 0)
(0.0204713 -9.69443e-05 0)
(0.0180007 -1.32601e-05 0)
(0.0204283 -4.42833e-05 0)
(0.0205053 -7.47907e-05 0)
(0.0204999 -0.000104961 0)
(0.0180305 -1.43677e-05 0)
(0.0204604 -4.79662e-05 0)
(0.0205369 -8.10042e-05 0)
(0.0205309 -0.000113672 0)
(0.0180629 -1.55718e-05 0)
(0.0204952 -5.19695e-05 0)
(0.0205711 -8.77577e-05 0)
(0.0205644 -0.000123139 0)
(0.0180979 -1.68819e-05 0)
(0.0205328 -5.6322e-05 0)
(0.0206082 -9.50991e-05 0)
(0.0206007 -0.000133428 0)
(0.0181359 -1.83076e-05 0)
(0.0205736 -6.10556e-05 0)
(0.0206483 -0.000103082 0)
(0.0206401 -0.000144614 0)
(0.018177 -1.98592e-05 0)
(0.0206178 -6.62047e-05 0)
(0.0206918 -0.000111763 0)
(0.0206827 -0.000156778 0)
(0.0182217 -2.15486e-05 0)
(0.0206657 -7.18076e-05 0)
(0.020739 -0.000121208 0)
(0.0207289 -0.000170009 0)
(0.0182701 -2.33888e-05 0)
(0.0207177 -7.79064e-05 0)
(0.0207902 -0.000131487 0)
(0.020779 -0.000184406 0)
(0.0183227 -2.53942e-05 0)
(0.0207741 -8.45478e-05 0)
(0.0208456 -0.000142677 0)
(0.0208333 -0.000200076 0)
(0.0183798 -2.75806e-05 0)
(0.0208353 -9.17827e-05 0)
(0.0209058 -0.000154865 0)
(0.0208922 -0.00021714 0)
(0.0184418 -2.99649e-05 0)
(0.0209017 -9.9668e-05 0)
(0.0209712 -0.000168145 0)
(0.0209562 -0.00023573 0)
(0.0185091 -3.25666e-05 0)
(0.0209739 -0.000108267 0)
(0.0210421 -0.000182624 0)
(0.0210256 -0.000255992 0)
(0.0185823 -3.54076e-05 0)
(0.0210522 -0.000117651 0)
(0.0211191 -0.000198419 0)
(0.0211009 -0.000278089 0)
(0.0186618 -3.85122e-05 0)
(0.0211373 -0.000127898 0)
(0.0212027 -0.000215661 0)
(0.0211827 -0.000302202 0)
(0.0187483 -4.19082e-05 0)
(0.0212298 -0.000139095 0)
(0.0212936 -0.000234492 0)
(0.0212715 -0.000328531 0)
(0.0188424 -4.56263e-05 0)
(0.0213304 -0.000151339 0)
(0.0213923 -0.000255077 0)
(0.0213681 -0.0003573 0)
(0.0189449 -4.97e-05 0)
(0.0214398 -0.000164739 0)
(0.0214998 -0.000277594 0)
(0.0214731 -0.00038876 0)
(0.0190564 -5.41678e-05 0)
(0.0215588 -0.000179418 0)
(0.0216166 -0.000302248 0)
(0.0215872 -0.000423191 0)
(0.019178 -5.90728e-05 0)
(0.0216884 -0.000195512 0)
(0.0217438 -0.000329266 0)
(0.0217114 -0.000460909 0)
(0.0193105 -6.44632e-05 0)
(0.0218296 -0.000213178 0)
(0.0218823 -0.000358905 0)
(0.0218466 -0.000502267 0)
(0.0194552 -7.03948e-05 0)
(0.0219835 -0.000232591 0)
(0.0220332 -0.000391456 0)
(0.0219938 -0.000547665 0)
(0.019613 -7.69316e-05 0)
(0.0221514 -0.000253951 0)
(0.0221978 -0.000427248 0)
(0.0221542 -0.000597557 0)
(0.0197855 -8.41462e-05 0)
(0.0223346 -0.000277487 0)
(0.0223772 -0.000466655 0)
(0.022329 -0.000652455 0)
(0.0199742 -9.21213e-05 0)
(0.0225348 -0.000303458 0)
(0.0225732 -0.000510102 0)
(0.0225198 -0.000712943 0)
(0.0201806 -0.000100952 0)
(0.0227535 -0.000332162 0)
(0.0227872 -0.000558077 0)
(0.0227281 -0.000779687 0)
(0.0204068 -0.00011075 0)
(0.0229928 -0.000363937 0)
(0.0230212 -0.00061114 0)
(0.0229556 -0.000853451 0)
(0.0206549 -0.000121641 0)
(0.0232549 -0.000399179 0)
(0.0232773 -0.000669935 0)
(0.0232043 -0.000935113 0)
(0.0209273 -0.000133776 0)
(0.0235421 -0.000438345 0)
(0.0235578 -0.000735207 0)
(0.0234765 -0.00102569 0)
(0.0212267 -0.000147329 0)
(0.0238574 -0.000481966 0)
(0.0238653 -0.000807824 0)
(0.0237747 -0.00112635 0)
(0.0215564 -0.000162504 0)
(0.0242038 -0.000530666 0)
(0.0242029 -0.000888795 0)
(0.0241016 -0.00123847 0)
(0.0219198 -0.000179544 0)
(0.0245849 -0.000585176 0)
(0.024574 -0.000979306 0)
(0.0244604 -0.00136364 0)
(0.0223212 -0.000198736 0)
(0.0250047 -0.000646359 0)
(0.0249824 -0.00108075 0)
(0.0248548 -0.00150374 0)
(0.0227653 -0.000220423 0)
(0.0254681 -0.00071524 0)
(0.0254325 -0.00119478 0)
(0.0252887 -0.001661 0)
(0.0232576 -0.000245018 0)
(0.0259804 -0.000793042 0)
(0.0259294 -0.00132337 0)
(0.0257669 -0.00183804 0)
(0.0238045 -0.000273018 0)
(0.0265478 -0.000881236 0)
(0.0264789 -0.00146887 0)
(0.0262946 -0.002038 0)
(0.0244135 -0.000305028 0)
(0.0271776 -0.000981597 0)
(0.0270877 -0.00163411 0)
(0.026878 -0.00226466 0)
(0.0250934 -0.00034179 0)
(0.0278783 -0.00109629 0)
(0.0277638 -0.00182256 0)
(0.0275242 -0.00252258 0)
(0.0258547 -0.00038422 0)
(0.0286598 -0.00122796 0)
(0.0285162 -0.00203842 0)
(0.0282411 -0.00281731 0)
(0.0267098 -0.000433454 0)
(0.0295339 -0.00137989 0)
(0.0293557 -0.00228689 0)
(0.0290384 -0.00315565 0)
(0.0276736 -0.000490912 0)
(0.0305146 -0.0015562 0)
(0.030295 -0.00257437 0)
(0.0299271 -0.00354602 0)
(0.0287643 -0.000558399 0)
(0.0316189 -0.00176204 0)
(0.0313493 -0.00290894 0)
(0.0309201 -0.00399889 0)
(0.0300037 -0.000638211 0)
(0.0328669 -0.00200392 0)
(0.0325365 -0.00330082 0)
(0.0320326 -0.0045274 0)
(0.031419 -0.000733363 0)
(0.0342836 -0.00229028 0)
(0.0338786 -0.00376307 0)
(0.0332827 -0.00514825 0)
(0.0330436 -0.000847621 0)
(0.0358994 -0.0026319 0)
(0.035402 -0.00431256 0)
(0.0346916 -0.00588283 0)
(0.03492 -0.000986483 0)
(0.0377522 -0.00304351 0)
(0.0371391 -0.00497138 0)
(0.036285 -0.00675885 0)
(0.0371013 -0.00115595 0)
(0.0398902 -0.00354337 0)
(0.0391301 -0.0057688 0)
(0.038093 -0.00781263 0)
(0.039657 -0.00136727 0)
(0.0423736 -0.00415935 0)
(0.041425 -0.00674423 0)
(0.040152 -0.00909239 0)
(0.0426761 -0.00163018 0)
(0.0452818 -0.00492409 0)
(0.0440866 -0.0079515 0)
(0.0425052 -0.010663 0)
(0.0462801 -0.00196737 0)
(0.0487174 -0.00589206 0)
(0.0471948 -0.00946528 0)
(0.0452039 -0.0126128 0)
(0.0506236 -0.00240053 0)
(0.0528179 -0.00713109 0)
(0.0508527 -0.0113914 0)
(0.0483084 -0.0150642 0)
(0.0559498 -0.00297008 0)
(0.0577703 -0.00874716 0)
(0.0551904 -0.0138819 0)
(0.0518869 -0.0181897 0)
(0.0624945 -0.00373741 0)
(0.0638301 -0.0109049 0)
(0.0603937 -0.0171609 0)
(0.0560183 -0.0222334 0)
(0.0709504 -0.00476993 0)
(0.0713741 -0.0138023 0)
(0.0666558 -0.0215623 0)
(0.0607666 -0.0275624 0)
(0.0810845 -0.00623165 0)
(0.0808576 -0.0179069 0)
(0.0744446 -0.0276015 0)
(0.0662518 -0.0346811 0)
(0.0965553 -0.00834289 0)
(0.093367 -0.023511 0)
(0.0837524 -0.0360595 0)
(0.0722717 -0.0445203 0)
(0.110398 -0.010816 0)
(0.108453 -0.0314892 0)
(0.0968413 -0.0481758 0)
(0.0798318 -0.0580539 0)
(0.146282 -0.0164376 0)
(0.13417 -0.0446525 0)
(0.11116 -0.0662534 0)
(0.0848477 -0.0786762 0)
(0.157597 -0.0173248 0)
(0.151549 -0.0529536 0)
(0.134997 -0.0881914 0)
(0.104469 -0.106525 0)
(0.246264 -0.034109 0)
(0.225402 -0.098362 0)
(0.176382 -0.148713 0)
(0.101691 -0.168449 0)
(0.0086514 -0.00905004 0)
(0.0212437 -0.0138162 0)
(0.0361841 -0.0148168 0)
(0.050632 -0.00996555 0)
(0.0688918 0.0064826 0)
(0.0808351 0.0268357 0)
(0.0803277 0.0395763 0)
(0.0733823 0.0453303 0)
(0.0635855 0.043864 0)
(0.0539111 0.0376014 0)
(0.0463813 0.0312345 0)
(0.0406942 0.0264834 0)
(0.0360822 0.0226294 0)
(0.0323653 0.0189568 0)
(0.0293857 0.0155219 0)
(0.0269327 0.0126246 0)
(0.0248856 0.0103228 0)
(0.0231817 0.00850402 0)
(0.0217643 0.00704358 0)
(0.0205826 0.00585254 0)
(0.0195961 0.00486921 0)
(0.018773 0.00404863 0)
(0.0180887 0.0033571 0)
(0.0175233 0.00276941 0)
(0.0170605 0.00226637 0)
(0.016687 0.00183335 0)
(0.0163914 0.00145898 0)
(0.0161639 0.00113434 0)
(0.015996 0.000852329 0)
(0.0158804 0.000607285 0)
(0.0158103 0.000394659 0)
(0.0157801 0.000210725 0)
(0.0157845 5.21932e-05 0)
(0.0158192 -8.44983e-05 0)
(0.0158792 -0.000201718 0)
(0.0159607 -0.000301048 0)
(0.01606 -0.000383783 0)
(0.0161739 -0.000451639 0)
(0.0162996 -0.000506382 0)
(0.0164343 -0.000549463 0)
(0.0165758 -0.00058219 0)
(0.016722 -0.000605772 0)
(0.0168711 -0.000621314 0)
(0.0170214 -0.000629805 0)
(0.0171716 -0.000632167 0)
(0.0173205 -0.000629289 0)
(0.0174672 -0.000621984 0)
(0.0176109 -0.000610972 0)
(0.0177509 -0.000596897 0)
(0.0178865 -0.00058034 0)
(0.0180176 -0.00056182 0)
(0.0181436 -0.000541793 0)
(0.0182645 -0.000520664 0)
(0.01838 -0.000498786 0)
(0.0184902 -0.000476464 0)
(0.0185949 -0.00045396 0)
(0.0186943 -0.000431494 0)
(0.0187884 -0.000409254 0)
(0.0188773 -0.000387393 0)
(0.0189612 -0.000366035 0)
(0.0190402 -0.000345281 0)
(0.0191145 -0.000325207 0)
(0.0191843 -0.000305871 0)
(0.0192498 -0.000287317 0)
(0.0193112 -0.00026957 0)
(0.0193687 -0.000252647 0)
(0.0194225 -0.000236554 0)
(0.0194727 -0.000221287 0)
(0.0195196 -0.000206835 0)
(0.0195634 -0.000193181 0)
(0.0196042 -0.000180305 0)
(0.0196423 -0.000168184 0)
(0.0196777 -0.00015679 0)
(0.0197108 -0.000146096 0)
(0.0197415 -0.000136072 0)
(0.0197701 -0.000126688 0)
(0.0197967 -0.000117915 0)
(0.0198214 -0.00010972 0)
(0.0198444 -0.000102074 0)
(0.0198658 -9.49471e-05 0)
(0.0198857 -8.83107e-05 0)
(0.0199042 -8.2137e-05 0)
(0.0199213 -7.63987e-05 0)
(0.0199373 -7.10703e-05 0)
(0.0199522 -6.61274e-05 0)
(0.019966 -6.15474e-05 0)
(0.0199788 -5.73078e-05 0)
(0.0199908 -5.3388e-05 0)
(0.020002 -4.97678e-05 0)
(0.0200124 -4.64296e-05 0)
(0.0200221 -4.3356e-05 0)
(0.0200311 -4.05313e-05 0)
(0.0200396 -3.79399e-05 0)
(0.0200476 -3.55685e-05 0)
(0.020055 -3.3404e-05 0)
(0.020062 -3.1435e-05 0)
(0.0200686 -2.96505e-05 0)
(0.0200748 -2.80411e-05 0)
(0.0200807 -2.65976e-05 0)
(0.0200864 -2.53124e-05 0)
(0.0200917 -2.41778e-05 0)
(0.0200968 -2.31879e-05 0)
(0.0201017 -2.23374e-05 0)
(0.0201065 -2.16212e-05 0)
(0.0201111 -2.10357e-05 0)
(0.0201156 -2.05774e-05 0)
(0.02012 -2.02438e-05 0)
(0.0201243 -2.00335e-05 0)
(0.0201287 -1.99457e-05 0)
(0.020133 -1.99805e-05 0)
(0.0201373 -2.01375e-05 0)
(0.0201417 -2.04183e-05 0)
(0.0201462 -2.08248e-05 0)
(0.0201507 -2.136e-05 0)
(0.0201554 -2.2027e-05 0)
(0.0201603 -2.28309e-05 0)
(0.0201653 -2.37765e-05 0)
(0.0201706 -2.48696e-05 0)
(0.0201761 -2.61176e-05 0)
(0.0201819 -2.75286e-05 0)
(0.020188 -2.91117e-05 0)
(0.0201945 -3.08771e-05 0)
(0.0202013 -3.28357e-05 0)
(0.0202087 -3.50007e-05 0)
(0.0202165 -3.73854e-05 0)
(0.0202249 -4.00061e-05 0)
(0.0202338 -4.28792e-05 0)
(0.0202434 -4.60233e-05 0)
(0.0202537 -4.9459e-05 0)
(0.0202648 -5.32085e-05 0)
(0.0202767 -5.72964e-05 0)
(0.0202896 -6.17495e-05 0)
(0.0203034 -6.6597e-05 0)
(0.0203184 -7.18706e-05 0)
(0.0203345 -7.76055e-05 0)
(0.0203519 -8.384e-05 0)
(0.0203707 -9.06156e-05 0)
(0.0203911 -9.7978e-05 0)
(0.0204131 -0.000105977 0)
(0.0204368 -0.000114667 0)
(0.0204626 -0.000124107 0)
(0.0204904 -0.000134362 0)
(0.0205205 -0.000145504 0)
(0.0205532 -0.000157612 0)
(0.0205885 -0.00017077 0)
(0.0206268 -0.000185072 0)
(0.0206682 -0.000200623 0)
(0.0207132 -0.000217535 0)
(0.0207619 -0.000235933 0)
(0.0208147 -0.000255956 0)
(0.020872 -0.000277754 0)
(0.0209341 -0.000301496 0)
(0.0210015 -0.000327368 0)
(0.0210746 -0.000355575 0)
(0.021154 -0.000386346 0)
(0.0212403 -0.000419935 0)
(0.0213339 -0.000456625 0)
(0.0214357 -0.000496732 0)
(0.0215463 -0.000540609 0)
(0.0216665 -0.000588652 0)
(0.0217974 -0.000641307 0)
(0.0219397 -0.000699076 0)
(0.0220948 -0.000762526 0)
(0.0222636 -0.000832298 0)
(0.0224477 -0.000909124 0)
(0.0226485 -0.000993832 0)
(0.0228676 -0.00108737 0)
(0.0231068 -0.00119084 0)
(0.0233683 -0.00130549 0)
(0.0236543 -0.00143277 0)
(0.0239675 -0.00157438 0)
(0.0243105 -0.00173226 0)
(0.0246869 -0.00190874 0)
(0.0251001 -0.0021065 0)
(0.0255543 -0.00232876 0)
(0.0260542 -0.00257933 0)
(0.0266052 -0.00286274 0)
(0.0272133 -0.00318448 0)
(0.0278854 -0.00355116 0)
(0.0286295 -0.00397085 0)
(0.0294545 -0.00445343 0)
(0.0303709 -0.00501113 0)
(0.0313905 -0.00565917 0)
(0.032527 -0.00641666 0)
(0.0337959 -0.0073078 0)
(0.0352146 -0.00836355 0)
(0.0368029 -0.00962378 0)
(0.0385823 -0.0111406 0)
(0.0405755 -0.0129823 0)
(0.0428049 -0.01524 0)
(0.0452895 -0.018036 0)
(0.0480385 -0.0215362 0)
(0.0510397 -0.0259676 0)
(0.0542396 -0.0316474 0)
(0.0574952 -0.0390074 0)
(0.0605199 -0.0487082 0)
(0.0626532 -0.0615177 0)
(0.0622995 -0.0793913 0)
(0.0597759 -0.103177 0)
(0.0177498 -0.144283 0)
(0.00521675 -0.025965 0)
(0.0131642 -0.0282575 0)
(0.0219255 -0.0278353 0)
(0.02824 -0.023116 0)
(0.0366274 -0.00911805 0)
(0.0478058 0.01807 0)
(0.052212 0.0400791 0)
(0.0507409 0.0497498 0)
(0.0475909 0.0503914 0)
(0.042544 0.0448228 0)
(0.0374991 0.0372431 0)
(0.0333794 0.0312894 0)
(0.030054 0.0263971 0)
(0.0275786 0.0218729 0)
(0.0256754 0.0178491 0)
(0.0240452 0.0145556 0)
(0.0226151 0.0119481 0)
(0.0213754 0.00987279 0)
(0.020307 0.0081969 0)
(0.01939 0.00682501 0)
(0.0186075 0.00568788 0)
(0.0179446 0.00473476 0)
(0.0173877 0.00392818 0)
(0.0169253 0.00324001 0)
(0.0165471 0.00264884 0)
(0.0162438 0.00213826 0)
(0.0160072 0.0016955 0)
(0.0158301 0.00131055 0)
(0.0157057 0.000975405 0)
(0.0156279 0.000683685 0)
(0.0155913 0.000430181 0)
(0.0155907 0.000210522 0)
(0.0156217 2.07905e-05 0)
(0.0156799 -0.000142464 0)
(0.0157612 -0.000282019 0)
(0.0158616 -0.000399888 0)
(0.0159779 -0.000497981 0)
(0.0161071 -0.000578341 0)
(0.0162464 -0.000642784 0)
(0.0163933 -0.000693118 0)
(0.0165456 -0.000730944 0)
(0.0167013 -0.000757716 0)
(0.0168587 -0.000774763 0)
(0.0170162 -0.000783321 0)
(0.0171726 -0.00078455 0)
(0.0173269 -0.000779519 0)
(0.0174781 -0.000769194 0)
(0.0176255 -0.000754451 0)
(0.0177685 -0.000736077 0)
(0.0179066 -0.000714779 0)
(0.0180395 -0.000691189 0)
(0.018167 -0.000665861 0)
(0.0182888 -0.000639284 0)
(0.018405 -0.000611881 0)
(0.0185155 -0.000584021 0)
(0.0186202 -0.000556013 0)
(0.0187194 -0.000528123 0)
(0.0188132 -0.000500572 0)
(0.0189016 -0.000473541 0)
(0.0189848 -0.000447177 0)
(0.0190631 -0.000421596 0)
(0.0191367 -0.000396889 0)
(0.0192056 -0.000373121 0)
(0.0192702 -0.000350337 0)
(0.0193307 -0.000328566 0)
(0.0193872 -0.000307824 0)
(0.0194401 -0.000288114 0)
(0.0194894 -0.000269429 0)
(0.0195354 -0.000251753 0)
(0.0195783 -0.000235066 0)
(0.0196182 -0.00021934 0)
(0.0196555 -0.000204546 0)
(0.0196901 -0.000190646 0)
(0.0197224 -0.000177607 0)
(0.0197524 -0.000165389 0)
(0.0197803 -0.000153957 0)
(0.0198062 -0.000143272 0)
(0.0198303 -0.000133294 0)
(0.0198527 -0.000123987 0)
(0.0198735 -0.000115314 0)
(0.0198928 -0.000107241 0)
(0.0199108 -9.97324e-05 0)
(0.0199275 -9.27551e-05 0)
(0.019943 -8.62773e-05 0)
(0.0199575 -8.02704e-05 0)
(0.0199709 -7.47048e-05 0)
(0.0199834 -6.95539e-05 0)
(0.019995 -6.4792e-05 0)
(0.0200058 -6.03951e-05 0)
(0.0200159 -5.6341e-05 0)
(0.0200254 -5.26091e-05 0)
(0.0200341 -4.91793e-05 0)
(0.0200424 -4.60334e-05 0)
(0.0200501 -4.31546e-05 0)
(0.0200573 -4.05277e-05 0)
(0.0200641 -3.8138e-05 0)
(0.0200705 -3.59728e-05 0)
(0.0200765 -3.40197e-05 0)
(0.0200822 -3.22685e-05 0)
(0.0200877 -3.0709e-05 0)
(0.0200928 -2.93329e-05 0)
(0.0200978 -2.81324e-05 0)
(0.0201026 -2.71007e-05 0)
(0.0201072 -2.62321e-05 0)
(0.0201116 -2.5522e-05 0)
(0.020116 -2.49662e-05 0)
(0.0201202 -2.45617e-05 0)
(0.0201245 -2.43073e-05 0)
(0.0201286 -2.42014e-05 0)
(0.0201328 -2.42436e-05 0)
(0.020137 -2.44346e-05 0)
(0.0201413 -2.47756e-05 0)
(0.0201456 -2.52691e-05 0)
(0.02015 -2.59184e-05 0)
(0.0201545 -2.67282e-05 0)
(0.0201592 -2.77035e-05 0)