/*--------------------------------*- C++ -*----------------------------------*\
  =========                 |
  \\      /  F ield         | OpenFOAM: The Open Source CFD Toolbox
   \\    /   O peration     | Website:  https://openfoam.org
    \\  /    A nd           | Version:  dev
     \\/     M anipulation  |
\*---------------------------------------------------------------------------*/
FoamFile
{
    version     2.0;
    format      ascii;
    class       surfaceScalarField;
    location    "5";
    object      phi;
}
// * * * * * * * * * * * * * * * * * * * * * * * * * * * * * * * * * * * * * //

dimensions      [1 0 -1 0 0 0 0];

internalField   nonuniform List<scalar> 
15760
(
1.23725e-05
0.00114625
1.88023e-05
0.00115218
2.33649e-05
0.00115404
0.00118578
-3.81073e-06
3.77993e-05
0.00110845
6.91134e-05
0.00112087
0.000111349
0.00111181
0.00114506
0.000152067
6.37625e-05
0.00104469
0.000125781
0.00105885
0.000206346
0.00103124
0.00104603
0.000305372
8.24449e-05
0.00096224
0.000169033
0.000972262
0.000270946
0.000929331
0.000916814
0.000400161
9.28395e-05
0.000869402
0.000193035
0.000872067
0.000301844
0.000820524
0.000780515
0.000438143
0.000101087
0.000768315
0.000203543
0.000769612
0.000307687
0.000716381
0.000656049
0.000432155
0.000105252
0.000663063
0.000201336
0.000673529
0.000293351
0.000624366
0.000555485
0.000393915
9.6359e-05
0.000566704
0.000181987
0.000587901
0.000260008
0.000546345
0.000482232
0.000333262
7.69717e-05
0.000489732
0.000150021
0.000514851
0.000214155
0.000482211
0.000430344
0.000266044
5.78003e-05
0.000431931
0.000117279
0.000455372
0.000168416
0.000431075
0.000391869
0.000206891
4.37414e-05
0.00038819
9.06443e-05
0.000408469
0.000130852
0.000390867
0.000361544
0.000161177
3.41249e-05
0.000354065
7.07044e-05
0.00037189
0.000102434
0.000359138
0.000336938
0.00012704
2.71774e-05
0.000326888
5.58242e-05
0.000343243
8.11052e-05
0.000333857
0.000316824
0.000101219
2.18453e-05
0.000305042
4.45037e-05
0.000320584
6.48256e-05
0.000313535
0.000300304
8.13459e-05
1.76433e-05
0.000287399
3.5753e-05
0.000302475
5.22104e-05
0.000297077
0.00028668
6.58343e-05
1.4305e-05
0.000273094
2.89058e-05
0.000287874
4.23122e-05
0.000283671
0.000275416
5.3576e-05
1.16391e-05
0.000261455
2.3489e-05
0.000276024
3.44567e-05
0.000272703
0.000266091
4.37819e-05
9.49721e-06
0.000251958
1.91603e-05
0.000266361
2.81579e-05
0.000263706
0.000258367
3.58813e-05
7.76535e-06
0.000244192
1.56698e-05
0.000258456
2.30622e-05
0.000256313
0.000251974
2.94552e-05
6.35611e-06
0.000237836
1.28332e-05
0.000251979
1.8908e-05
0.000250238
0.000246691
2.41913e-05
5.20279e-06
0.000232633
1.05121e-05
0.00024667
1.54995e-05
0.000245251
0.000242336
1.98542e-05
4.25399e-06
0.000228379
8.60201e-06
0.000242322
1.26876e-05
0.000241166
0.00023876
1.62636e-05
3.46975e-06
0.00022491
7.02223e-06
0.000238769
1.03577e-05
0.00023783
0.000235839
1.32795e-05
2.81933e-06
0.00022209
5.71084e-06
0.000235878
8.42086e-06
0.00023512
0.000233467
1.07929e-05
2.27849e-06
0.000219812
4.6192e-06
0.000233537
6.80692e-06
0.000232932
0.000231557
8.71651e-06
1.82803e-06
0.000217984
3.70895e-06
0.000231656
5.46023e-06
0.000231181
0.000230036
6.98138e-06
1.45241e-06
0.000216531
2.94912e-06
0.00023016
4.33563e-06
0.000229795
0.000228841
5.5307e-06
1.13915e-06
0.000215392
2.3148e-06
0.000228984
3.39686e-06
0.000228713
0.000227919
4.31888e-06
8.78099e-07
0.000214514
1.78579e-06
0.000228076
2.61397e-06
0.000227884
0.000227225
3.3078e-06
6.60868e-07
0.000213853
1.34535e-06
0.000227392
1.96232e-06
0.000227267
0.000226721
2.4663e-06
4.80674e-07
0.000213373
9.79907e-07
0.000226893
1.4216e-06
0.000226826
0.000226375
1.76803e-06
3.31541e-07
0.000213041
6.7737e-07
0.000226547
9.74357e-07
0.000226529
0.000226158
1.19097e-06
2.08972e-07
0.000212832
4.2844e-07
0.000226327
6.06453e-07
0.000226351
0.000226048
7.16596e-07
1.08384e-07
0.000212724
2.24368e-07
0.000226211
3.05351e-07
0.00022627
0.000226024
3.29124e-07
2.65254e-08
0.000212697
5.8665e-08
0.000226179
6.12196e-08
0.000226267
0.00022607
1.5175e-08
-3.86763e-08
0.000212736
-7.41898e-08
0.000226215
-1.34909e-07
0.000226328
0.000226172
-2.36513e-07
-9.08043e-08
0.000212827
-1.79994e-07
0.000226304
-2.9082e-07
0.000226439
0.000226317
-4.36007e-07
-1.31947e-07
0.000212958
-2.63534e-07
0.000226435
-4.13335e-07
0.000226588
0.000226496
-5.92035e-07
-1.63616e-07
0.000213122
-3.27935e-07
0.0002266
-5.07464e-07
0.000226768
0.000226699
-7.11163e-07
-1.87304e-07
0.000213309
-3.76168e-07
0.000226789
-5.77706e-07
0.00022697
0.000226921
-7.99312e-07
-2.0436e-07
0.000213514
-4.10981e-07
0.000226995
-6.28143e-07
0.000227187
0.000227155
-8.61887e-07
-2.15994e-07
0.00021373
-4.34653e-07
0.000227214
-6.62149e-07
0.000227414
0.000227396
-9.0321e-07
-2.2311e-07
0.000213953
-4.49125e-07
0.00022744
-6.82536e-07
0.000227648
0.00022764
-9.27015e-07
-2.26458e-07
0.000214179
-4.5622e-07
0.00022767
-6.91874e-07
0.000227883
0.000227885
-9.36657e-07
-2.26789e-07
0.000214406
-4.57298e-07
0.0002279
-6.92296e-07
0.000228118
0.000228127
-9.34781e-07
-2.24782e-07
0.000214631
-4.53364e-07
0.000228129
-6.85561e-07
0.00022835
0.000228365
-9.23583e-07
-2.20922e-07
0.000214852
-4.4551e-07
0.000228353
-6.73138e-07
0.000228578
0.000228597
-9.05134e-07
-2.15548e-07
0.000215067
-4.34701e-07
0.000228572
-6.56282e-07
0.0002288
0.000228822
-8.81135e-07
-2.08975e-07
0.000215276
-4.2163e-07
0.000228785
-6.36007e-07
0.000229014
0.000229039
-8.52892e-07
-2.01569e-07
0.000215478
-4.06826e-07
0.00022899
-6.13257e-07
0.00022922
0.000229247
-8.21506e-07
-1.93594e-07
0.000215671
-3.90806e-07
0.000229188
-5.88789e-07
0.000229418
0.000229447
-7.87953e-07
-1.85242e-07
0.000215857
-3.73976e-07
0.000229376
-5.6318e-07
0.000229608
0.000229636
-7.53036e-07
-1.76661e-07
0.000216033
-3.56665e-07
0.000229556
-5.3691e-07
0.000229788
0.000229817
-7.17396e-07
-1.67982e-07
0.000216201
-3.39161e-07
0.000229728
-5.10415e-07
0.000229959
0.000229988
-6.81546e-07
-1.59318e-07
0.000216361
-3.21717e-07
0.00022989
-4.84004e-07
0.000230121
0.00023015
-6.45907e-07
-1.50746e-07
0.000216511
-3.04497e-07
0.000230044
-4.5793e-07
0.000230275
0.000230303
-6.10811e-07
-1.42365e-07
0.000216654
-2.87602e-07
0.000230189
-4.32407e-07
0.00023042
0.000230447
-5.76519e-07
-1.34202e-07
0.000216788
-2.71159e-07
0.000230326
-4.07599e-07
0.000230556
0.000230583
-5.43225e-07
-1.26318e-07
0.000216914
-2.55251e-07
0.000230455
-3.83639e-07
0.000230685
0.00023071
-5.11094e-07
-1.18732e-07
0.000217033
-2.39953e-07
0.000230576
-3.60589e-07
0.000230805
0.00023083
-4.80221e-07
-1.11466e-07
0.000217144
-2.2529e-07
0.00023069
-3.38507e-07
0.000230918
0.000230942
-4.50686e-07
-1.04524e-07
0.000217249
-2.11296e-07
0.000230797
-3.17431e-07
0.000231025
0.000231047
-4.22539e-07
-9.79169e-08
0.000217347
-1.97983e-07
0.000230897
-2.97405e-07
0.000231124
0.000231145
-3.95782e-07
-9.16491e-08
0.000217438
-1.85363e-07
0.00023099
-2.78414e-07
0.000231217
0.000231237
-3.70419e-07
-8.57253e-08
0.000217524
-1.73417e-07
0.000231078
-2.60454e-07
0.000231304
0.000231323
-3.46442e-07
-8.01358e-08
0.000217604
-1.6214e-07
0.00023116
-2.43504e-07
0.000231385
0.000231404
-3.23838e-07
-7.48728e-08
0.000217679
-1.5151e-07
0.000231237
-2.27561e-07
0.000231461
0.000231479
-3.02579e-07
-6.99187e-08
0.000217749
-1.41533e-07
0.000231308
-2.12575e-07
0.000231532
0.000231549
-2.82609e-07
-6.52732e-08
0.000217814
-1.32179e-07
0.000231375
-1.98515e-07
0.000231599
0.000231614
-2.63884e-07
-6.09308e-08
0.000217875
-1.23417e-07
0.000231438
-1.85343e-07
0.000231661
0.000231675
-2.46373e-07
-5.68657e-08
0.000217932
-1.15227e-07
0.000231496
-1.73045e-07
0.000231719
0.000231732
-2.3002e-07
-5.30765e-08
0.000217985
-1.07584e-07
0.000231551
-1.61581e-07
0.000231773
0.000231785
-2.14764e-07
-4.95414e-08
0.000218035
-1.00472e-07
0.000231602
-1.50897e-07
0.000231823
0.000231835
-2.00549e-07
-4.62621e-08
0.000218081
-9.3855e-08
0.000231649
-1.40958e-07
0.00023187
0.000231881
-1.87324e-07
-4.32285e-08
0.000218124
-8.76996e-08
0.000231694
-1.31727e-07
0.000231914
0.000231925
-1.75059e-07
-4.04008e-08
0.000218164
-8.19964e-08
0.000231735
-1.23182e-07
0.000231955
0.000231965
-1.63704e-07
-3.77843e-08
0.000218202
-7.67255e-08
0.000231774
-1.15286e-07
0.000231994
0.000232003
-1.53199e-07
-3.53581e-08
0.000218238
-7.18656e-08
0.000231811
-1.07988e-07
0.00023203
0.000232039
-1.43488e-07
-3.31265e-08
0.000218271
-6.73855e-08
0.000231845
-1.0126e-07
0.000232064
0.000232072
-1.34547e-07
-3.10917e-08
0.000218302
-6.32558e-08
0.000231877
-9.50731e-08
0.000232096
0.000232103
-1.26342e-07
-2.92188e-08
0.000218331
-5.94767e-08
0.000231907
-8.94188e-08
0.000232126
0.000232133
-1.18833e-07
-2.7502e-08
0.000218359
-5.60356e-08
0.000231936
-8.42508e-08
0.000232154
0.00023216
-1.11971e-07
-2.59422e-08
0.000218384
-5.28986e-08
0.000231963
-7.95483e-08
0.00023218
0.000232186
-1.05725e-07
-2.45289e-08
0.000218409
-5.00585e-08
0.000231988
-7.52825e-08
0.000232206
0.000232211
-1.00067e-07
-2.32646e-08
0.000218432
-4.74938e-08
0.000232013
-7.14503e-08
0.00023223
0.000232235
-9.49792e-08
-2.21346e-08
0.000218454
-4.52001e-08
0.000232036
-6.8027e-08
0.000232252
0.000232257
-9.04321e-08
-2.1124e-08
0.000218475
-4.31778e-08
0.000232058
-6.49898e-08
0.000232274
0.000232279
-8.64e-08
-2.02317e-08
0.000218496
-4.13957e-08
0.000232079
-6.23236e-08
0.000232295
0.000232299
-8.28572e-08
-1.94593e-08
0.000218515
-3.98512e-08
0.000232099
-6.00132e-08
0.000232315
0.000232319
-7.97924e-08
-1.88064e-08
0.000218534
-3.85392e-08
0.000232119
-5.80492e-08
0.000232335
0.000232338
-7.71968e-08
-1.82597e-08
0.000218552
-3.74551e-08
0.000232138
-5.64279e-08
0.000232354
0.000232357
-7.50505e-08
-1.78201e-08
0.00021857
-3.65887e-08
0.000232157
-5.51396e-08
0.000232372
0.000232375
-7.33383e-08
-1.74905e-08
0.000218587
-3.59393e-08
0.000232175
-5.41716e-08
0.000232391
0.000232393
-7.20575e-08
-1.72697e-08
0.000218605
-3.5505e-08
0.000232194
-5.35204e-08
0.000232409
0.00023241
-7.12026e-08
-1.71537e-08
0.000218622
-3.52773e-08
0.000232212
-5.31938e-08
0.000232427
0.000232428
-7.07788e-08
-1.71409e-08
0.000218639
-3.5268e-08
0.00023223
-5.31903e-08
0.000232445
0.000232446
-7.07737e-08
-1.72287e-08
0.000218656
-3.54692e-08
0.000232248
-5.35041e-08
0.000232463
0.000232463
-7.11979e-08
-1.74139e-08
0.000218674
-3.58893e-08
0.000232267
-5.41326e-08
0.000232481
0.000232481
-7.20425e-08
-1.7716e-08
0.000218691
-3.65157e-08
0.000232285
-5.50922e-08
0.000232499
0.000232499
-7.33223e-08
-1.81272e-08
0.000218709
-3.73719e-08
0.000232305
-5.63889e-08
0.000232518
0.000232518
-7.50394e-08
-1.86563e-08
0.000218728
-3.84569e-08
0.000232324
-5.80249e-08
0.000232538
0.000232537
-7.7224e-08
-1.93003e-08
0.000218747
-3.97747e-08
0.000232345
-6.00167e-08
0.000232558
0.000232557
-7.98719e-08
-2.00514e-08
0.000218767
-4.13364e-08
0.000232366
-6.23794e-08
0.000232579
0.000232578
-8.30088e-08
-2.09279e-08
0.000218788
-4.31595e-08
0.000232388
-6.51121e-08
0.000232601
0.000232599
-8.66529e-08
-2.19428e-08
0.00021881
-4.52424e-08
0.000232412
-6.82503e-08
0.000232624
0.000232622
-9.08313e-08
-2.31044e-08
0.000218833
-4.76061e-08
0.000232436
-7.18109e-08
0.000232648
0.000232646
-9.55642e-08
-2.44093e-08
0.000218858
-5.02611e-08
0.000232462
-7.58165e-08
0.000232674
0.000232671
-1.00886e-07
-2.586e-08
0.000218884
-5.32306e-08
0.000232489
-8.02866e-08
0.000232701
0.000232697
-1.0683e-07
-2.7463e-08
0.000218911
-5.65315e-08
0.000232519
-8.52489e-08
0.00023273
0.000232725
-1.1343e-07
-2.92322e-08
0.00021894
-6.01821e-08
0.000232549
-9.07422e-08
0.00023276
0.000232755
-1.20736e-07
-3.12054e-08
0.000218971
-6.42067e-08
0.000232582
-9.68001e-08
0.000232793
0.000232787
-1.28791e-07
-3.33758e-08
0.000219005
-6.863e-08
0.000232618
-1.03467e-07
0.000232828
0.000232822
-1.37647e-07
-3.57535e-08
0.000219041
-7.34843e-08
0.000232655
-1.10772e-07
0.000232865
0.000232858
-1.47356e-07
-3.83464e-08
0.000219079
-7.87958e-08
0.000232696
-1.18762e-07
0.000232905
0.000232897
-1.57972e-07
-4.11738e-08
0.00021912
-8.4593e-08
0.000232739
-1.2749e-07
0.000232948
0.000232939
-1.69567e-07
-4.42548e-08
0.000219164
-9.09202e-08
0.000232786
-1.37006e-07
0.000232994
0.000232985
-1.82219e-07
-4.76276e-08
0.000219212
-9.78162e-08
0.000232836
-1.47377e-07
0.000233043
0.000233033
-1.96015e-07
-5.13026e-08
0.000219263
-1.05332e-07
0.00023289
-1.58672e-07
0.000233097
0.000233086
-2.11035e-07
-5.53167e-08
0.000219319
-1.13499e-07
0.000232948
-1.70974e-07
0.000233154
0.000233142
-2.27371e-07
-5.96713e-08
0.000219378
-1.22383e-07
0.000233011
-1.84339e-07
0.000233216
0.000233203
-2.45129e-07
-6.43815e-08
0.000219443
-1.32031e-07
0.000233079
-1.98847e-07
0.000233283
0.000233268
-2.64406e-07
-6.9492e-08
0.000219512
-1.42497e-07
0.000233152
-2.14592e-07
0.000233355
0.000233339
-2.85332e-07
-7.50445e-08
0.000219587
-1.53862e-07
0.000233231
-2.31692e-07
0.000233433
0.000233415
-3.08056e-07
-8.10842e-08
0.000219668
-1.66204e-07
0.000233316
-2.50247e-07
0.000233517
0.000233498
-3.32727e-07
-8.76405e-08
0.000219756
-1.79584e-07
0.000233408
-2.70384e-07
0.000233608
0.000233587
-3.59479e-07
-9.47468e-08
0.000219851
-1.94098e-07
0.000233507
-2.92222e-07
0.000233706
0.000233683
-3.88492e-07
-1.02442e-07
0.000219953
-2.09843e-07
0.000233614
-3.15895e-07
0.000233812
0.000233787
-4.19944e-07
-1.1079e-07
0.000220064
-2.26909e-07
0.000233731
-3.41561e-07
0.000233927
0.0002339
-4.54043e-07
-1.19836e-07
0.000220184
-2.45405e-07
0.000233856
-3.69382e-07
0.000234051
0.000234021
-4.91008e-07
-1.29647e-07
0.000220313
-2.65464e-07
0.000233992
-3.99539e-07
0.000234185
0.000234153
-5.31085e-07
-1.40298e-07
0.000220453
-2.87206e-07
0.000234139
-4.32238e-07
0.00023433
0.000234295
-5.74534e-07
-1.51847e-07
0.000220605
-3.10779e-07
0.000234298
-4.67692e-07
0.000234487
0.000234449
-6.21631e-07
-1.64362e-07
0.00022077
-3.36328e-07
0.00023447
-5.06128e-07
0.000234656
0.000234616
-6.72681e-07
-1.77919e-07
0.000220948
-3.64031e-07
0.000234656
-5.47781e-07
0.00023484
0.000234796
-7.28008e-07
-1.92605e-07
0.00022114
-3.94064e-07
0.000234857
-5.92931e-07
0.000235039
0.000234991
-7.87992e-07
-2.08537e-07
0.000221349
-4.26624e-07
0.000235075
-6.41891e-07
0.000235254
0.000235202
-8.53031e-07
-2.25823e-07
0.000221575
-4.61936e-07
0.000235311
-6.94991e-07
0.000235487
0.000235431
-9.2356e-07
-2.44579e-07
0.000221819
-5.00243e-07
0.000235567
-7.52576e-07
0.00023574
0.000235678
-1.00005e-06
-2.64928e-07
0.000222084
-5.41792e-07
0.000235844
-8.15041e-07
0.000236013
0.000235946
-1.08299e-06
-2.86999e-07
0.000222371
-5.86859e-07
0.000236144
-8.82793e-07
0.000236309
0.000236236
-1.17296e-06
-3.10942e-07
0.000222682
-6.35762e-07
0.000236469
-9.56297e-07
0.000236629
0.000236551
-1.27057e-06
-3.36926e-07
0.000223019
-6.88832e-07
0.000236821
-1.03607e-06
0.000236977
0.000236891
-1.37649e-06
-3.65148e-07
0.000223384
-7.46445e-07
0.000237202
-1.12267e-06
0.000237353
0.00023726
-1.49147e-06
-3.95795e-07
0.00022378
-8.09009e-07
0.000237615
-1.21669e-06
0.000237761
0.000237659
-1.61629e-06
-4.29085e-07
0.000224209
-8.7696e-07
0.000238063
-1.3188e-06
0.000238202
0.000238093
-1.75184e-06
-4.65247e-07
0.000224674
-9.5078e-07
0.000238548
-1.42973e-06
0.000238681
0.000238562
-1.89906e-06
-5.04555e-07
0.000225179
-1.03101e-06
0.000239075
-1.55027e-06
0.000239201
0.000239071
-2.05904e-06
-5.47295e-07
0.000225726
-1.11824e-06
0.000239646
-1.68132e-06
0.000239764
0.000239622
-2.23293e-06
-5.93788e-07
0.00022632
-1.21311e-06
0.000240265
-1.82384e-06
0.000240374
0.00024022
-2.42201e-06
-6.44382e-07
0.000226964
-1.31634e-06
0.000240937
-1.97887e-06
0.000241037
0.000240869
-2.62768e-06
-6.99451e-07
0.000227664
-1.42871e-06
0.000241666
-2.14762e-06
0.000241756
0.000241573
-2.8515e-06
-7.5945e-07
0.000228423
-1.5511e-06
0.000242458
-2.33138e-06
0.000242536
0.000242337
-3.0952e-06
-8.2486e-07
0.000229248
-1.68446e-06
0.000243318
-2.5316e-06
0.000243383
0.000243166
-3.36067e-06
-8.96202e-07
0.000230144
-1.82989e-06
0.000244251
-2.74988e-06
0.000244303
0.000244066
-3.65003e-06
-9.74053e-07
0.000231118
-1.98855e-06
0.000245266
-2.988e-06
0.000245303
0.000245044
-3.9656e-06
-1.05906e-06
0.000232177
-2.16178e-06
0.000246369
-3.24791e-06
0.000246389
0.000246106
-4.30998e-06
-1.15195e-06
0.000233329
-2.35104e-06
0.000247568
-3.53181e-06
0.00024757
0.00024726
-4.68605e-06
-1.25354e-06
0.000234583
-2.55799e-06
0.000248872
-3.84218e-06
0.000248854
0.000248515
-5.09707e-06
-1.36476e-06
0.000235947
-2.78449e-06
0.000250292
-4.18177e-06
0.000250251
0.00024988
-5.54666e-06
-1.48664e-06
0.000237434
-3.03262e-06
0.000251838
-4.5537e-06
0.000251772
0.000251365
-6.03887e-06
-1.62036e-06
0.000239054
-3.30473e-06
0.000253522
-4.96143e-06
0.000253429
0.000252982
-6.57828e-06
-1.76722e-06
0.000240821
-3.60348e-06
0.000255358
-5.4089e-06
0.000255234
0.000254743
-7.17e-06
-1.92871e-06
0.00024275
-3.93184e-06
0.000257362
-5.90055e-06
0.000257203
0.000256662
-7.81987e-06
-2.10653e-06
0.000244857
-4.29322e-06
0.000259548
-6.44143e-06
0.000259351
0.000258755
-8.53445e-06
-2.30259e-06
0.000247159
-4.69152e-06
0.000261937
-7.03728e-06
0.000261697
0.000261039
-9.32127e-06
-2.51913e-06
0.000249678
-5.13117e-06
0.000264549
-7.69468e-06
0.00026426
0.000263533
-1.01888e-05
-2.75869e-06
0.000252437
-5.61728e-06
0.000267408
-8.42114e-06
0.000267064
0.000266259
-1.11469e-05
-3.0242e-06
0.000255461
-6.15572e-06
0.000270539
-9.22531e-06
0.000270134
0.000269241
-1.22067e-05
-3.31909e-06
0.00025878
-6.7533e-06
0.000273974
-1.01172e-05
0.000273498
0.000272505
-1.33813e-05
-3.64733e-06
0.000262428
-7.41794e-06
0.000277744
-1.11085e-05
0.000277188
0.000276082
-1.46855e-05
-4.01355e-06
0.000266441
-8.15885e-06
0.000281889
-1.22126e-05
0.000281242
0.000280006
-1.61369e-05
-4.42319e-06
0.000270864
-8.98685e-06
0.000286453
-1.34455e-05
0.000285701
0.000284316
-1.77557e-05
-4.8827e-06
0.000275747
-9.91471e-06
0.000291485
-1.48256e-05
0.000290612
0.000289056
-1.95658e-05
-5.39975e-06
0.000281147
-1.09576e-05
0.000297043
-1.63751e-05
0.000296029
0.000294277
-2.15955e-05
-5.9835e-06
0.00028713
-1.21335e-05
0.000303193
-1.81201e-05
0.000302016
0.000300034
-2.38778e-05
-6.64496e-06
0.000293775
-1.34641e-05
0.000310012
-2.00921e-05
0.000308644
0.000306395
-2.64528e-05
-7.39747e-06
0.000301173
-1.49755e-05
0.00031759
-2.23286e-05
0.000315997
0.000313434
-2.93679e-05
-8.25733e-06
0.00030943
-1.66997e-05
0.000326032
-2.48755e-05
0.000324173
0.00032124
-3.26806e-05
-9.24461e-06
0.000318675
-1.86756e-05
0.000335463
-2.77885e-05
0.000333286
0.000329912
-3.64609e-05
-1.03841e-05
0.000329059
-2.09513e-05
0.000346031
-3.11364e-05
0.000343471
0.00033957
-4.0794e-05
-1.1707e-05
0.000340766
-2.3587e-05
0.000357911
-3.50042e-05
0.000354888
0.00035035
-4.5785e-05
-1.32524e-05
0.000354018
-2.66582e-05
0.000371316
-3.94985e-05
0.000367728
0.000362416
-5.15647e-05
-1.50706e-05
0.000369089
-3.02608e-05
0.000386507
-4.47537e-05
0.000382221
0.000375959
-5.82963e-05
-1.72263e-05
0.000386315
-3.4518e-05
0.000403798
-5.09412e-05
0.000398644
0.000391204
-6.61866e-05
-1.98039e-05
0.000406119
-3.959e-05
0.000423584
-5.8282e-05
0.000417336
0.000408421
-7.54987e-05
-2.29155e-05
0.000429034
-4.56871e-05
0.000446356
-6.70639e-05
0.000438713
0.000427929
-8.65717e-05
-2.6711e-05
0.000455745
-5.30901e-05
0.000472735
-7.76671e-05
0.00046329
0.000450109
-9.9847e-05
-3.1395e-05
0.00048714
-6.21783e-05
0.000503518
-9.05995e-05
0.000491711
0.000475414
-0.000115905
-3.72509e-05
0.000524391
-7.34736e-05
0.000539741
-0.00010655
0.000524788
0.000504381
-0.000135517
-4.46748e-05
0.000569066
-8.7702e-05
0.000582768
-0.000126467
0.000563553
0.00053764
-0.000159726
-5.42507e-05
0.000623317
-0.000105907
0.000634424
-0.000151676
0.000609322
0.000575911
-0.000189947
-6.67608e-05
0.000690077
-0.000129562
0.000697225
-0.000184069
0.000663829
0.000619991
-0.000228149
-8.36229e-05
0.0007737
-0.000160959
0.000774561
-0.000226364
0.000729234
0.00067069
-0.000277063
-0.000106166
0.000879866
-0.000203189
0.000871584
-0.000282697
0.000808742
0.000728673
-0.00034068
-0.000138475
0.00101834
-0.000261833
0.000994941
-0.000358964
0.000905874
0.000794137
-0.000424428
-0.000181833
0.00120017
-0.000343136
0.00115624
-0.000465755
0.00102849
0.000866224
-0.000537842
-0.000242738
0.00144291
-0.000458948
0.00137245
-0.000615391
0.00118493
0.00094173
-0.000690897
-0.000345148
0.00178806
-0.000632973
0.00166028
-0.000844471
0.00139643
0.0010189
-0.000921638
-0.000398418
0.00218648
-0.000800597
0.00206246
-0.00113795
0.00173379
0.00111465
-0.00123371
-0.000763641
-0.00139772
-0.00177707
-0.00194455
0.000376577
-0.000380388
0.00058321
-5.45674e-05
0.00065419
0.000234391
0.00063743
0.000416921
0.000572528
0.000503049
0.000494036
0.000510649
0.000430064
0.000457888
0.00039023
0.000373096
0.000364542
0.000291731
0.000343934
0.0002275
0.000325787
0.000179324
0.00030987
0.000142957
0.000296063
0.000115026
0.000284165
9.32433e-05
0.000273978
7.60216e-05
0.000265306
6.22481e-05
0.000257963
5.11254e-05
0.000251775
4.20688e-05
0.000246588
3.46425e-05
0.000242262
2.85172e-05
0.000238676
2.34404e-05
0.000235723
1.92168e-05
0.00023331
1.56922e-05
0.000231357
1.27455e-05
0.000229795
1.02784e-05
0.000228564
8.21266e-06
0.000227612
6.48304e-06
0.000226894
5.03687e-06
0.000226372
3.82966e-06
0.000226013
2.82496e-06
0.00022579
1.99166e-06
0.000225677
1.30366e-06
0.000225655
7.38798e-07
0.000225705
2.78509e-07
0.000225814
-9.37072e-08
0.000225969
-3.91182e-07
0.000226159
-6.25867e-07
0.000226375
-8.08037e-07
0.00022661
-9.45948e-07
0.000226857
-1.04693e-06
0.000227113
-1.11724e-06
0.000227371
-1.16201e-06
0.00022763
-1.1859e-06
0.000227887
-1.19296e-06
0.000228138
-1.18642e-06
0.000228384
-1.16896e-06
0.000228621
-1.14296e-06
0.000228851
-1.11038e-06
0.000229071
-1.0729e-06
0.000229281
-1.0319e-06
0.000229482
-9.88521e-07
0.000229672
-9.43677e-07
0.000229853
-8.98124e-07
0.000230024
-8.52493e-07
0.000230185
-8.07289e-07
0.000230337
-7.62902e-07
0.00023048
-7.19627e-07
0.000230615
-6.77685e-07
0.000230741
-6.3726e-07
0.000230859
-5.98492e-07
0.00023097
-5.61454e-07
0.000231074
-5.26179e-07
0.000231171
-4.92694e-07
0.000231261
-4.60994e-07
0.000231346
-4.31063e-07
0.000231425
-4.02852e-07
0.000231499
-3.76311e-07
0.000231567
-3.51389e-07
0.000231632
-3.2805e-07
0.000231691
-3.0622e-07
0.000231747
-2.85838e-07
0.000231799
-2.66831e-07
0.000231848
-2.49136e-07
0.000231893
-2.32701e-07
0.000231936
-2.17453e-07
0.000231975
-2.03323e-07
0.000232012
-1.9025e-07
0.000232047
-1.78192e-07
0.00023208
-1.67088e-07
0.00023211
-1.56893e-07
0.000232139
-1.47556e-07
0.000232166
-1.39025e-07
0.000232191
-1.31268e-07
0.000232216
-1.2425e-07
0.000232239
-1.17935e-07
0.00023226
-1.1229e-07
0.000232281
-1.07279e-07
0.000232301
-1.02891e-07
0.000232321
-9.90902e-08
0.000232339
-9.58634e-08
0.000232357
-9.32048e-08
0.000232375
-9.10832e-08
0.000232393
-8.94957e-08
0.00023241
-8.84459e-08
0.000232427
-8.79157e-08
0.000232444
-8.79171e-08
0.000232461
-8.84412e-08
0.000232479
-8.94949e-08
0.000232497
-9.10808e-08
0.000232515
-9.32225e-08
0.000232533
-9.59315e-08
0.000232553
-9.92258e-08
0.000232573
-1.0312e-07
0.000232594
-1.07649e-07
0.000232616
-1.12836e-07
0.000232639
-1.18713e-07
0.000232664
-1.25322e-07
0.000232689
-1.32701e-07
0.000232717
-1.409e-07
0.000232746
-1.49973e-07
0.000232777
-1.59974e-07
0.000232811
-1.70962e-07
0.000232846
-1.83011e-07
0.000232884
-1.96191e-07
0.000232926
-2.1059e-07
0.00023297
-2.26305e-07
0.000233017
-2.43425e-07
0.000233068
-2.62061e-07
0.000233123
-2.8234e-07
0.000233182
-3.04376e-07
0.000233246
-3.28306e-07
0.000233315
-3.54288e-07
0.00023339
-3.82496e-07
0.00023347
-4.13106e-07
0.000233557
-4.46308e-07
0.000233651
-4.82309e-07
0.000233752
-5.21344e-07
0.000233862
-5.63663e-07
0.00023398
-6.09535e-07
0.000234108
-6.5927e-07
0.000234247
-7.13176e-07
0.000234397
-7.71611e-07
0.000234559
-8.34942e-07
0.000234735
-9.0359e-07
0.000234925
-9.78009e-07
0.00023513
-1.0587e-06
0.000235353
-1.14618e-06
0.000235594
-1.24105e-06
0.000235855
-1.34392e-06
0.000236138
-1.45549e-06
0.000236443
-1.57653e-06
0.000236775
-1.70788e-06
0.000237134
-1.85043e-06
0.000237523
-2.00516e-06
0.000237944
-2.17317e-06
0.000238401
-2.35564e-06
0.000238895
-2.5539e-06
0.000239432
-2.76935e-06
0.000240013
-3.00358e-06
0.000240644
-3.25833e-06
0.000241328
-3.5355e-06
0.00024207
-3.83723e-06
0.000242875
-4.16584e-06
0.000243749
-4.52393e-06
0.000244698
-4.91435e-06
0.000245728
-5.34028e-06
0.000246848
-5.80529e-06
0.000248064
-6.31333e-06
0.000249386
-6.86884e-06
0.000250824
-7.47676e-06
0.000252388
-8.14266e-06
0.000254091
-8.8728e-06
0.000255945
-9.67426e-06
0.000257966
-1.0555e-05
0.000260169
-1.15242e-05
0.000262572
-1.25921e-05
0.000265196
-1.37704e-05
0.000268062
-1.50729e-05
0.000271195
-1.6515e-05
0.000274625
-1.81146e-05
0.00027838
-1.98927e-05
0.000282498
-2.18733e-05
0.000287017
-2.4085e-05
0.000291983
-2.65609e-05
0.000297445
-2.93404e-05
0.000303462
-3.24699e-05
0.0003101
-3.60052e-05
0.000317432
-4.00128e-05
0.000325544
-4.45733e-05
0.000334534
-4.97842e-05
0.000344514
-5.5765e-05
0.000355612
-6.26624e-05
0.000367974
-7.06585e-05
0.000381768
-7.99806e-05
0.000397184
-9.09144e-05
0.000414434
-0.000103823
0.000433756
-0.000119168
0.0004554
-0.000137549
0.000479623
-0.00015974
0.000506655
-0.000186758
0.000536648
-0.00021994
0.000569566
-0.000261068
0.000605013
-0.00031251
0.000641785
-0.000377451
0.000677467
-0.000460111
0.000705856
-0.000566231
0.000717502
-0.000702543
0.000675299
-0.000879435
0.000537056
-0.00109547
-0.0014075
9.95667e-06
-0.000390344
7.15135e-05
-0.000116124
0.000143554
0.000162351
0.000197375
0.000363102
0.000229136
0.000471289
0.000251912
0.000487874
0.000273337
0.000436463
0.000288835
0.000357598
0.000294629
0.000285937
0.000293157
0.000228972
0.000287856
0.000184625
0.000280936
0.000149878
0.000273589
0.000122373
0.000266454
0.000100379
0.000259851
8.26245e-05
0.000253923
6.81759e-05
0.000248711
5.63372e-05
0.000244201
4.65788e-05
0.000240349
3.84946e-05
0.000237097
3.17691e-05
0.000234383
2.61548e-05
0.000232143
2.14562e-05
0.000230319
1.75164e-05
0.000228855
1.42096e-05
0.000227701
1.14328e-05
0.000226811
9.10227e-06
0.000226146
7.14795e-06
0.000225671
5.5123e-06
0.000225354
4.14652e-06
0.000225169
3.00999e-06
0.000225092
2.06822e-06
0.000225104
1.29164e-06
0.000225188
6.55457e-07
0.000225328
1.38338e-07
0.000225512
-2.78172e-07
0.000225731
-6.09432e-07
0.000225974
-8.69226e-07
0.000226235
-1.06901e-06
0.000226507
-1.21826e-06
0.000226786
-1.32549e-06
0.000227066
-1.39801e-06
0.000227346
-1.44183e-06
0.000227622
-1.46207e-06
0.000227893
-1.46322e-06
0.000228155
-1.44911e-06
0.000228409
-1.42291e-06
0.000228654
-1.38732e-06
0.000228888
-1.34458e-06
0.000229112
-1.29654e-06
0.000229324
-1.2448e-06
0.000229527
-1.19061e-06
0.000229718
-1.13503e-06
0.000229899
-1.07894e-06
0.000230069
-1.02303e-06
0.00023023
-9.67859e-07
0.000230381
-9.13855e-07
0.000230523
-8.61348e-07
0.000230655
-8.10606e-07
0.00023078
-7.61815e-07
0.000230897
-7.1508e-07
0.000231006
-6.70464e-07
0.000231107
-6.28039e-07
0.000231203
-5.87807e-07
0.000231291
-5.4977e-07
0.000231374
-5.13873e-07
0.000231451
-4.80078e-07
0.000231523
-4.48332e-07
0.000231591
-4.18553e-07
0.000231653
-3.90669e-07
0.000231712
-3.64595e-07
0.000231766
-3.40254e-07
0.000231817
-3.1757e-07
0.000231864
-2.96468e-07
0.000231908
-2.76858e-07
0.000231949
-2.58675e-07
0.000231988
-2.41836e-07
0.000232024
-2.26264e-07
0.000232058
-2.11903e-07
0.000232089
-1.98687e-07
0.000232119
-1.86545e-07
0.000232147
-1.75431e-07
0.000232173
-1.65282e-07
0.000232198
-1.56051e-07
0.000232221
-1.47701e-07
0.000232244
-1.40188e-07
0.000232265
-1.33468e-07
0.000232285
-1.27517e-07
0.000232304
-1.22294e-07
0.000232323
-1.17778e-07
0.000232341
-1.13949e-07
0.000232359
-1.1078e-07
0.000232376
-1.08264e-07
0.000232393
-1.06382e-07
0.000232409
-1.05129e-07
0.000232426
-1.04509e-07
0.000232443
-1.0451e-07
0.000232459
-1.05135e-07
0.000232476
-1.06382e-07
0.000232493
-1.08272e-07
0.000232511
-1.10817e-07
0.000232529
-1.14038e-07
0.000232548
-1.17958e-07
0.000232567
-1.22595e-07
0.000232588
-1.27973e-07
0.000232609
-1.34134e-07
0.000232631
-1.41122e-07
0.000232655
-1.48975e-07
0.00023268
-1.57745e-07
0.000232707
-1.67491e-07
0.000232735
-1.78268e-07
0.000232765
-1.9015e-07
0.000232797
-2.03212e-07
0.000232832
-2.17523e-07
0.000232869
-2.33188e-07
0.000232909
-2.50301e-07
0.000232951
-2.6897e-07
0.000232997
-2.89309e-07
0.000233046
-3.1145e-07
0.0002331
-3.35545e-07
0.000233157
-3.61728e-07
0.000233219
-3.90151e-07
0.000233286
-4.21017e-07
0.000233358
-4.54528e-07
0.000233435
-4.9089e-07
0.000233519
-5.3033e-07
0.00023361
-5.73095e-07
0.000233708
-6.19458e-07
0.000233814
-6.6972e-07
0.000233929
-7.24206e-07
0.000234053
-7.83274e-07
0.000234187
-8.47298e-07
0.000234332
-9.16685e-07
0.000234489
-9.9189e-07
0.000234659
-1.0734e-06
0.000234843
-1.16177e-06
0.000235042
-1.25756e-06
0.000235257
-1.36142e-06
0.00023549
-1.47403e-06
0.000235742
-1.59613e-06
0.000236015
-1.72856e-06
0.000236311
-1.87221e-06
0.000236631
-2.02807e-06
0.000236978
-2.19719e-06
0.000237353
-2.38076e-06
0.00023776
-2.58004e-06
0.000238201
-2.79645e-06
0.000238679
-3.03153e-06
0.000239196
-3.28697e-06
0.000239757
-3.56461e-06
0.000240365
-3.86652e-06
0.000241025
-4.19493e-06
0.00024174
-4.55234e-06
0.000242516
-4.94151e-06
0.000243357
-5.36544e-06
0.00024427
-5.82751e-06
0.000245262
-6.33144e-06
0.000246338
-6.8814e-06
0.000247506
-7.48202e-06
0.000248776
-8.13846e-06
0.000250156
-8.8565e-06
0.000251656
-9.64261e-06
0.000253287
-1.05041e-05
0.000255062
-1.14491e-05
0.000256994
-1.24869e-05
0.000259097
-1.3628e-05
0.00026139
-1.48843e-05
0.000263888
-1.62693e-05
0.000266614
-1.77987e-05
0.000269589
-1.94902e-05
0.000272839
-2.13642e-05
0.000276391
-2.34444e-05
0.000280276
-2.57583e-05
0.000284529
-2.83379e-05
0.000289188
-3.12203e-05
0.000294297
-3.44496e-05
0.000299905
-3.80774e-05
0.000306064
-4.21651e-05
0.000312837
-4.67857e-05
0.000320291
-5.20269e-05
0.000328501
-5.7994e-05
0.00033755
-6.48144e-05
0.000347531
-7.26436e-05
0.000358544
-8.16715e-05
0.000370696
-9.21322e-05
0.000384097
-0.000104315
0.000398856
-0.000118582
0.000415071
-0.000135383
0.000432809
-0.000155287
0.000452079
-0.00017901
0.000472777
-0.000207456
0.000494606
-0.00024177
0.000516934
-0.000283395
0.000538556
-0.000334132
0.000557291
-0.000396186
0.000569349