/*--------------------------------*- C++ -*----------------------------------*\
  =========                 |
  \\      /  F ield         | OpenFOAM: The Open Source CFD Toolbox
   \\    /   O peration     | Website:  https://openfoam.org
    \\  /    A nd           | Version:  dev
     \\/     M anipulation  |
\*---------------------------------------------------------------------------*/
FoamFile
{
    version     2.0;
    format      ascii;
    class       volVectorField;
    location    "5";
    object      U;
}
// * * * * * * * * * * * * * * * * * * * * * * * * * * * * * * * * * * * * * //

dimensions      [0 1 -1 0 0 0 0];

internalField   nonuniform List<vector> 
8000
(
(0.0996114 0.000517374 0)
(0.0999119 0.0013811 0)
(0.100084 0.00176944 0)
(0.100606 0.00241909 0)
(0.0977767 0.00165699 0)
(0.0985854 0.0047244 0)
(0.0985835 0.00785376 0)
(0.101675 0.011549 0)
(0.0937423 0.00291347 0)
(0.0949434 0.00784917 0)
(0.0935149 0.0145163 0)
(0.0965565 0.0217723 0)
(0.0873031 0.00414447 0)
(0.0885198 0.00996793 0)
(0.0853243 0.0191546 0)
(0.0857947 0.0288933 0)
(0.079451 0.00524123 0)
(0.080119 0.0111888 0)
(0.0758389 0.021339 0)
(0.0732406 0.0319958 0)
(0.0708735 0.00628856 0)
(0.0707033 0.0120188 0)
(0.0660023 0.0219185 0)
(0.0614342 0.0320028 0)
(0.0615911 0.00690675 0)
(0.0619408 0.0122629 0)
(0.0574831 0.0212631 0)
(0.0515549 0.0299163 0)
(0.052572 0.00631419 0)
(0.0540472 0.0112628 0)
(0.050092 0.0191618 0)
(0.044045 0.0260966 0)
(0.0450113 0.00477548 0)
(0.0471518 0.00923754 0)
(0.0439357 0.015986 0)
(0.0388521 0.0212159 0)
(0.0393355 0.00328408 0)
(0.0415015 0.00716866 0)
(0.0390585 0.0126585 0)
(0.0351884 0.0165433 0)
(0.0351075 0.00227819 0)
(0.0369959 0.0055615 0)
(0.0352206 0.00983189 0)
(0.0323322 0.0128292 0)
(0.0318374 0.00167246 0)
(0.0334632 0.00438916 0)
(0.0321854 0.00766467 0)
(0.03001 0.010057 0)
(0.0292454 0.00128517 0)
(0.0307056 0.00350685 0)
(0.0297733 0.00604079 0)
(0.0281134 0.00797696 0)
(0.027166 0.00100819 0)
(0.0285341 0.00282326 0)
(0.0278398 0.00480682 0)
(0.0265569 0.00638706 0)
(0.0254874 0.000798086 0)
(0.0268042 0.00228534 0)
(0.026277 0.00385544 0)
(0.0252734 0.00515312 0)
(0.0241271 0.000636045 0)
(0.0254131 0.00185812 0)
(0.0250055 0.00311319 0)
(0.0242119 0.00418287 0)
(0.0230212 0.000510079 0)
(0.0242863 0.0015162 0)
(0.0239661 0.00252748 0)
(0.0233327 0.00341101 0)
(0.0221192 0.000411253 0)
(0.0233685 0.00124059 0)
(0.0231138 0.00206026 0)
(0.0226041 0.00279072 0)
(0.021382 0.000332945 0)
(0.0226184 0.0010169 0)
(0.0224135 0.00168402 0)
(0.0220004 0.00228786 0)
(0.0207784 0.000270301 0)
(0.0220038 0.000834186 0)
(0.0218377 0.00137858 0)
(0.0215008 0.00187712 0)
(0.0202841 0.000219774 0)
(0.0214997 0.000684095 0)
(0.0213646 0.00112887 0)
(0.0210883 0.0015395 0)
(0.0198796 0.000178712 0)
(0.0210866 0.000560206 0)
(0.0209763 0.000923504 0)
(0.0207488 0.00126055 0)
(0.019549 0.000145111 0)
(0.0207485 0.000457527 0)
(0.0206588 0.000753744 0)
(0.0204706 0.00102911 0)
(0.0192799 0.00011746 0)
(0.0204727 0.000372178 0)
(0.0204 0.000612871 0)
(0.020244 0.000836532 0)
(0.0190617 9.4612e-05 0)
(0.0202487 0.000301082 0)
(0.0201904 0.000495619 0)
(0.0200607 0.000675931 0)
(0.0188859 7.5675e-05 0)
(0.020068 0.000241788 0)
(0.0200218 0.00039785 0)
(0.0199139 0.000541854 0)
(0.0187455 5.99401e-05 0)
(0.0199235 0.000192296 0)
(0.0198876 0.000316238 0)
(0.0197977 0.000429846 0)
(0.0186347 4.68507e-05 0)
(0.0198092 0.000150991 0)
(0.019782 0.00024811 0)
(0.0197072 0.000336332 0)
(0.0185484 3.59645e-05 0)
(0.0197201 0.000116557 0)
(0.0197004 0.00019129 0)
(0.0196382 0.000258342 0)
(0.0184827 2.69191e-05 0)
(0.0196521 8.78927e-05 0)
(0.0196387 0.00014398 0)
(0.0195871 0.00019344 0)
(0.018434 1.9428e-05 0)
(0.0196016 6.41145e-05 0)
(0.0195936 0.000104717 0)
(0.0195509 0.000139595 0)
(0.0183994 1.32399e-05 0)
(0.0195656 4.44285e-05 0)
(0.0195622 7.22139e-05 0)
(0.019527 9.50816e-05 0)
(0.0183765 8.15504e-06 0)
(0.0195417 2.82395e-05 0)
(0.0195421 4.54737e-05 0)
(0.0195133 5.84742e-05 0)
(0.0183631 3.97973e-06 0)
(0.0195275 1.49576e-05 0)
(0.0195312 2.3565e-05 0)
(0.0195078 2.85403e-05 0)
(0.0183575 5.73392e-07 0)
(0.0195214 4.16656e-06 0)
(0.0195279 5.79075e-06 0)
(0.019509 4.27815e-06 0)
(0.0183584 -2.08912e-06 0)
(0.0195219 -4.45792e-06 0)
(0.0195307 -8.49617e-06 0)
(0.0195156 -1.52104e-05 0)
(0.0183641 -4.22844e-06 0)
(0.0195274 -1.1351e-05 0)
(0.0195383 -1.98587e-05 0)
(0.0195264 -3.06821e-05 0)
(0.0183739 -5.91283e-06 0)
(0.0195371 -1.67992e-05 0)
(0.0195497 -2.88243e-05 0)
(0.0195406 -4.28018e-05 0)
(0.0183868 -7.20944e-06 0)
(0.0195501 -2.09998e-05 0)
(0.019564 -3.57282e-05 0)
(0.0195572 -5.21016e-05 0)
(0.0184021 -8.17543e-06 0)
(0.0195654 -2.41508e-05 0)
(0.0195806 -4.08844e-05 0)
(0.0195757 -5.90283e-05 0)
(0.0184191 -8.86682e-06 0)
(0.0195826 -2.64279e-05 0)
(0.0195988 -4.45982e-05 0)
(0.0195954 -6.39759e-05 0)
(0.0184373 -9.32378e-06 0)
(0.019601 -2.79862e-05 0)
(0.019618 -4.71288e-05 0)
(0.019616 -6.72705e-05 0)
(0.0184563 -9.58953e-06 0)
(0.0196203 -2.8945e-05 0)
(0.019638 -4.86735e-05 0)
(0.019637 -6.9217e-05 0)
(0.0184758 -9.7125e-06 0)
(0.01964 -2.9413e-05 0)
(0.0196583 -4.94093e-05 0)
(0.0196582 -7.00853e-05 0)
(0.0184954 -9.71991e-06 0)
(0.0196599 -2.94866e-05 0)
(0.0196787 -4.94902e-05 0)
(0.0196792 -7.00689e-05 0)
(0.0185149 -9.61814e-06 0)
(0.0196798 -2.92459e-05 0)
(0.0196989 -4.90446e-05 0)
(0.0197 -6.9325e-05 0)
(0.0185342 -9.42709e-06 0)
(0.0196994 -2.87573e-05 0)
(0.0197187 -4.81861e-05 0)
(0.0197203 -6.80126e-05 0)
(0.018553 -9.17829e-06 0)
(0.0197186 -2.80703e-05 0)
(0.0197382 -4.70083e-05 0)
(0.0197401 -6.62674e-05 0)
(0.0185714 -8.89058e-06 0)
(0.0197372 -2.72288e-05 0)
(0.019757 -4.5582e-05 0)
(0.0197591 -6.41898e-05 0)
(0.0185891 -8.57266e-06 0)
(0.0197553 -2.62757e-05 0)
(0.0197752 -4.39698e-05 0)
(0.0197775 -6.1868e-05 0)
(0.0186062 -8.22885e-06 0)
(0.0197727 -2.52455e-05 0)
(0.0197926 -4.22288e-05 0)
(0.0197951 -5.93781e-05 0)
(0.0186225 -7.86538e-06 0)
(0.0197893 -2.41625e-05 0)
(0.0198094 -4.04043e-05 0)
(0.0198119 -5.67782e-05 0)
(0.0186381 -7.49102e-06 0)
(0.0198053 -2.30477e-05 0)
(0.0198253 -3.85314e-05 0)
(0.0198279 -5.41144e-05 0)
(0.018653 -7.11473e-06 0)
(0.0198204 -2.19202e-05 0)
(0.0198405 -3.66399e-05 0)
(0.0198431 -5.14289e-05 0)
(0.0186672 -6.74279e-06 0)
(0.0198348 -2.0795e-05 0)
(0.0198549 -3.47527e-05 0)
(0.0198574 -4.87567e-05 0)
(0.0186805 -6.3769e-06 0)
(0.0198485 -1.96819e-05 0)
(0.0198685 -3.28881e-05 0)
(0.019871 -4.61234e-05 0)
(0.0186932 -6.01934e-06 0)
(0.0198614 -1.85906e-05 0)
(0.0198814 -3.10612e-05 0)
(0.0198838 -4.35471e-05 0)
(0.0187051 -5.66999e-06 0)
(0.0198735 -1.75289e-05 0)
(0.0198935 -2.92844e-05 0)
(0.0198959 -4.10417e-05 0)
(0.0187164 -5.3317e-06 0)
(0.019885 -1.6503e-05 0)
(0.0199049 -2.75666e-05 0)
(0.0199073 -3.86212e-05 0)
(0.0187269 -5.00628e-06 0)
(0.0198958 -1.55155e-05 0)
(0.0199157 -2.59135e-05 0)
(0.0199179 -3.62951e-05 0)
(0.0187369 -4.69511e-06 0)
(0.019906 -1.45684e-05 0)
(0.0199258 -2.43296e-05 0)
(0.0199279 -3.40694e-05 0)
(0.0187462 -4.39876e-06 0)
(0.0199155 -1.36642e-05 0)
(0.0199352 -2.28174e-05 0)
(0.0199373 -3.19468e-05 0)
(0.0187549 -4.11791e-06 0)
(0.0199244 -1.2805e-05 0)
(0.0199441 -2.1378e-05 0)
(0.0199461 -2.99294e-05 0)
(0.0187631 -3.85252e-06 0)
(0.0199328 -1.19909e-05 0)
(0.0199524 -2.00109e-05 0)
(0.0199543 -2.80182e-05 0)
(0.0187708 -3.60127e-06 0)
(0.0199406 -1.12204e-05 0)
(0.0199602 -1.87172e-05 0)
(0.019962 -2.62117e-05 0)
(0.0187779 -3.36262e-06 0)
(0.0199479 -1.0493e-05 0)
(0.0199675 -1.74973e-05 0)
(0.0199691 -2.45061e-05 0)
(0.0187846 -3.13717e-06 0)
(0.0199547 -9.80779e-06 0)
(0.0199742 -1.63496e-05 0)
(0.0199759 -2.28995e-05 0)
(0.0187908 -2.9258e-06 0)
(0.0199611 -9.16376e-06 0)
(0.0199806 -1.52715e-05 0)
(0.0199821 -2.13894e-05 0)
(0.0187967 -2.72867e-06 0)
(0.0199671 -8.55882e-06 0)
(0.0199865 -1.42608e-05 0)
(0.0199879 -1.9974e-05 0)
(0.0188021 -2.54469e-06 0)
(0.0199727 -7.99167e-06 0)
(0.019992 -1.33157e-05 0)
(0.0199934 -1.86493e-05 0)
(0.0188072 -2.37259e-06 0)
(0.0199779 -7.46144e-06 0)
(0.0199972 -1.24334e-05 0)
(0.0199985 -1.74113e-05 0)
(0.0188119 -2.21262e-06 0)
(0.0199828 -6.96721e-06 0)
(0.020002 -1.16098e-05 0)
(0.0200032 -1.62566e-05 0)
(0.0188164 -2.06323e-06 0)
(0.0199873 -6.50636e-06 0)
(0.0200065 -1.08418e-05 0)
(0.0200077 -1.51822e-05 0)
(0.0188205 -1.92329e-06 0)
(0.0199916 -6.07724e-06 0)
(0.0200107 -1.01281e-05 0)
(0.0200118 -1.41838e-05 0)
(0.0188243 -1.79257e-06 0)
(0.0199956 -5.67913e-06 0)
(0.0200147 -9.46591e-06 0)
(0.0200157 -1.32563e-05 0)
(0.018828 -1.67128e-06 0)
(0.0199993 -5.31073e-06 0)
(0.0200183 -8.85214e-06 0)
(0.0200193 -1.23959e-05 0)
(0.0188313 -1.56086e-06 0)
(0.0200027 -4.97063e-06 0)
(0.0200218 -8.28292e-06 0)
(0.0200227 -1.16001e-05 0)
(0.0188345 -1.45936e-06 0)
(0.020006 -4.6555e-06 0)
(0.020025 -7.75647e-06 0)
(0.0200259 -1.08663e-05 0)
(0.0188374 -1.36536e-06 0)
(0.020009 -4.36413e-06 0)
(0.020028 -7.27218e-06 0)
(0.0200288 -1.01911e-05 0)
(0.0188402 -1.2788e-06 0)
(0.0200119 -4.09661e-06 0)
(0.0200309 -6.82794e-06 0)
(0.0200316 -9.57042e-06 0)
(0.0188428 -1.19955e-06 0)
(0.0200146 -3.85227e-06 0)
(0.0200335 -6.42179e-06 0)
(0.0200342 -9.00139e-06 0)
(0.0188452 -1.12772e-06 0)
(0.0200171 -3.62948e-06 0)
(0.020036 -6.05014e-06 0)
(0.0200367 -8.48142e-06 0)
(0.0188476 -1.06222e-06 0)
(0.0200195 -3.42579e-06 0)
(0.0200384 -5.71154e-06 0)
(0.020039 -8.00913e-06 0)
(0.0188497 -1.00172e-06 0)
(0.0200218 -3.24054e-06 0)
(0.0200406 -5.40567e-06 0)
(0.0200412 -7.5815e-06 0)
(0.0188518 -9.46981e-07 0)
(0.0200239 -3.0741e-06 0)
(0.0200428 -5.13123e-06 0)
(0.0200433 -7.19617e-06 0)
(0.0188537 -8.98809e-07 0)
(0.020026 -2.92611e-06 0)
(0.0200448 -4.88549e-06 0)
(0.0200453 -6.85088e-06 0)
(0.0188556 -8.56888e-07 0)
(0.0200279 -2.79523e-06 0)
(0.0200467 -4.6668e-06 0)
(0.0200472 -6.54471e-06 0)
(0.0188574 -8.20215e-07 0)
(0.0200298 -2.6792e-06 0)
(0.0200485 -4.47405e-06 0)
(0.020049 -6.27682e-06 0)
(0.0188591 -7.87947e-07 0)
(0.0200316 -2.57816e-06 0)
(0.0200503 -4.30765e-06 0)
(0.0200507 -6.04537e-06 0)
(0.0188608 -7.60459e-07 0)
(0.0200333 -2.49269e-06 0)
(0.020052 -4.16684e-06 0)
(0.0200524 -5.84866e-06 0)
(0.0188623 -7.378e-07 0)
(0.020035 -2.42223e-06 0)
(0.0200537 -4.05032e-06 0)
(0.020054 -5.68545e-06 0)
(0.0188639 -7.19921e-07 0)
(0.0200366 -2.36561e-06 0)
(0.0200553 -3.95688e-06 0)
(0.0200556 -5.55573e-06 0)
(0.0188654 -7.05953e-07 0)
(0.0200382 -2.32245e-06 0)
(0.0200569 -3.88688e-06 0)
(0.0200572 -5.4593e-06 0)
(0.0188669 -6.95584e-07 0)
(0.0200398 -2.29309e-06 0)
(0.0200585 -3.84098e-06 0)
(0.0200587 -5.3952e-06 0)
(0.0188684 -6.89636e-07 0)
(0.0200414 -2.27808e-06 0)
(0.02006 -3.8186e-06 0)
(0.0200602 -5.36286e-06 0)
(0.0188699 -6.89276e-07 0)
(0.0200429 -2.27804e-06 0)
(0.0200615 -3.81874e-06 0)
(0.0200617 -5.36144e-06 0)
(0.0188714 -6.94302e-07 0)
(0.0200445 -2.2915e-06 0)
(0.0200631 -3.84008e-06 0)
(0.0200632 -5.39216e-06 0)
(0.0188729 -7.03166e-07 0)
(0.0200461 -2.31756e-06 0)
(0.0200647 -3.88383e-06 0)
(0.0200648 -5.45573e-06 0)
(0.0188744 -7.15541e-07 0)
(0.0200477 -2.35661e-06 0)
(0.0200663 -3.95171e-06 0)
(0.0200663 -5.5534e-06 0)
(0.0188759 -7.31455e-07 0)
(0.0200493 -2.41051e-06 0)
(0.0200679 -4.04554e-06 0)
(0.0200679 -5.68437e-06 0)
(0.0188775 -7.52813e-07 0)
(0.020051 -2.48053e-06 0)
(0.0200695 -4.16412e-06 0)
(0.0200696 -5.84922e-06 0)
(0.0188791 -7.80286e-07 0)
(0.0200528 -2.56634e-06 0)
(0.0200712 -4.30703e-06 0)
(0.0200712 -6.04873e-06 0)
(0.0188808 -8.12661e-07 0)
(0.0200546 -2.6668e-06 0)
(0.020073 -4.47533e-06 0)
(0.020073 -6.28596e-06 0)
(0.0188826 -8.49151e-07 0)
(0.0200564 -2.78276e-06 0)
(0.0200749 -4.67128e-06 0)
(0.0200748 -6.56225e-06 0)
(0.0188844 -8.89806e-07 0)
(0.0200584 -2.91549e-06 0)
(0.0200768 -4.89746e-06 0)
(0.0200767 -6.87981e-06 0)
(0.0188864 -9.36118e-07 0)
(0.0200605 -3.06752e-06 0)
(0.0200789 -5.15537e-06 0)
(0.0200787 -7.23906e-06 0)
(0.0188884 -9.89495e-07 0)
(0.0200626 -3.23975e-06 0)
(0.020081 -5.44478e-06 0)
(0.0200808 -7.64174e-06 0)
(0.0188906 -1.05035e-06 0)
(0.0200649 -3.43246e-06 0)
(0.0200833 -5.76628e-06 0)
(0.020083 -8.09051e-06 0)
(0.0188929 -1.11772e-06 0)
(0.0200674 -3.64526e-06 0)
(0.0200857 -6.12193e-06 0)
(0.0200854 -8.58923e-06 0)
(0.0188953 -1.19059e-06 0)
(0.0200699 -3.87894e-06 0)
(0.0200882 -6.51577e-06 0)
(0.0200879 -9.14233e-06 0)
(0.0188979 -1.27036e-06 0)
(0.0200727 -4.13714e-06 0)
(0.020091 -6.95157e-06 0)
(0.0200906 -9.75292e-06 0)
(0.0189007 -1.35814e-06 0)
(0.0200756 -4.42204e-06 0)
(0.0200939 -7.43215e-06 0)
(0.0200934 -1.04242e-05 0)
(0.0189037 -1.45615e-06 0)
(0.0200788 -4.73624e-06 0)
(0.020097 -7.95862e-06 0)
(0.0200965 -1.11592e-05 0)
(0.0189069 -1.56508e-06 0)
(0.0200822 -5.08037e-06 0)
(0.0201003 -8.53293e-06 0)
(0.0200997 -1.19624e-05 0)
(0.0189103 -1.68425e-06 0)
(0.0200858 -5.45502e-06 0)
(0.0201039 -9.15867e-06 0)
(0.0201032 -1.28401e-05 0)
(0.018914 -1.81247e-06 0)
(0.0200897 -5.86196e-06 0)
(0.0201077 -9.84131e-06 0)
(0.020107 -1.37983e-05 0)
(0.018918 -1.95047e-06 0)
(0.0200938 -6.30499e-06 0)
(0.0201118 -1.05869e-05 0)
(0.0201111 -1.48436e-05 0)
(0.0189222 -2.09957e-06 0)
(0.0200983 -6.78823e-06 0)
(0.0201163 -1.1401e-05 0)
(0.0201154 -1.59818e-05 0)
(0.0189268 -2.2633e-06 0)
(0.0201032 -7.31576e-06 0)
(0.020121 -1.22873e-05 0)
(0.0201201 -1.72197e-05 0)
(0.0189318 -2.44307e-06 0)
(0.0201084 -7.8906e-06 0)
(0.0201262 -1.32497e-05 0)
(0.0201251 -1.85642e-05 0)
(0.0189371 -2.63914e-06 0)
(0.020114 -8.51435e-06 0)
(0.0201317 -1.42929e-05 0)
(0.0201306 -2.00234e-05 0)
(0.0189429 -2.85192e-06 0)
(0.02012 -9.18989e-06 0)
(0.0201377 -1.54237e-05 0)
(0.0201365 -2.16077e-05 0)
(0.0189491 -3.08192e-06 0)
(0.0201266 -9.92232e-06 0)
(0.0201442 -1.66519e-05 0)
(0.0201428 -2.33285e-05 0)
(0.0189559 -3.33082e-06 0)
(0.0201337 -1.07176e-05 0)
(0.0201512 -1.7986e-05 0)
(0.0201497 -2.51965e-05 0)
(0.0189631 -3.60071e-06 0)
(0.0201413 -1.15808e-05 0)
(0.0201587 -1.94341e-05 0)
(0.0201571 -2.72226e-05 0)
(0.018971 -3.89425e-06 0)
(0.0201495 -1.25179e-05 0)
(0.0201668 -2.10046e-05 0)
(0.020165 -2.94199e-05 0)
(0.0189795 -4.21349e-06 0)
(0.0201584 -1.35343e-05 0)
(0.0201756 -2.27067e-05 0)
(0.0201737 -3.18018e-05 0)
(0.0189887 -4.56018e-06 0)
(0.0201681 -1.46358e-05 0)
(0.0201851 -2.45514e-05 0)
(0.020183 -3.43845e-05 0)
(0.0189986 -4.93452e-06 0)
(0.0201785 -1.58283e-05 0)
(0.0201954 -2.65511e-05 0)
(0.0201931 -3.71847e-05 0)
(0.0190094 -5.33859e-06 0)
(0.0201898 -1.71208e-05 0)
(0.0202066 -2.87204e-05 0)
(0.020204 -4.02205e-05 0)
(0.019021 -5.77627e-06 0)
(0.020202 -1.85228e-05 0)
(0.0202186 -3.10735e-05 0)
(0.0202158 -4.35118e-05 0)
(0.0190336 -6.25159e-06 0)
(0.0202151 -2.00441e-05 0)
(0.0202316 -3.36252e-05 0)
(0.0202286 -4.70795e-05 0)
(0.0190472 -6.7688e-06 0)
(0.0202294 -2.16943e-05 0)
(0.0202457 -3.63904e-05 0)
(0.0202424 -5.09462e-05 0)
(0.019062 -7.33095e-06 0)
(0.0202448 -2.34833e-05 0)
(0.0202609 -3.93861e-05 0)
(0.0202573 -5.51366e-05 0)
(0.0190779 -7.94031e-06 0)
(0.0202615 -2.54214e-05 0)
(0.0202774 -4.26322e-05 0)
(0.0202735 -5.96794e-05 0)
(0.0190952 -8.60028e-06 0)
(0.0202796 -2.75215e-05 0)
(0.0202953 -4.6152e-05 0)
(0.020291 -6.46058e-05 0)
(0.0191139 -9.3146e-06 0)
(0.0202992 -2.97987e-05 0)
(0.0203146 -4.99704e-05 0)
(0.02031 -6.99488e-05 0)
(0.0191342 -1.0089e-05 0)
(0.0203204 -3.22695e-05 0)
(0.0203355 -5.41132e-05 0)
(0.0203305 -7.57433e-05 0)
(0.0191562 -1.09299e-05 0)
(0.0203433 -3.49506e-05 0)
(0.0203581 -5.86072e-05 0)
(0.0203527 -8.20276e-05 0)
(0.01918 -1.1843e-05 0)
(0.0203682 -3.78591e-05 0)
(0.0203827 -6.34814e-05 0)
(0.0203768 -8.88442e-05 0)
(0.0192057 -1.28338e-05 0)
(0.0203951 -4.10143e-05 0)
(0.0204092 -6.87697e-05 0)
(0.0204028 -9.62393e-05 0)
(0.0192337 -1.39086e-05 0)
(0.0204243 -4.44381e-05 0)
(0.020438 -7.45089e-05 0)
(0.020431 -0.000104265 0)
(0.0192639 -1.50756e-05 0)
(0.0204559 -4.81553e-05 0)
(0.0204692 -8.074e-05 0)
(0.0204616 -0.000112978 0)
(0.0192967 -1.63432e-05 0)
(0.0204901 -5.21923e-05 0)
(0.020503 -8.75065e-05 0)
(0.0204947 -0.000122436 0)
(0.0193323 -1.77206e-05 0)
(0.0205272 -5.65775e-05 0)
(0.0205396 -9.48547e-05 0)
(0.0205306 -0.000132708 0)
(0.0193708 -1.92175e-05 0)
(0.0205675 -6.13414e-05 0)
(0.0205793 -0.000102837 0)
(0.0205695 -0.000143865 0)
(0.0194126 -2.0845e-05 0)
(0.0206111 -6.65189e-05 0)
(0.0206223 -0.000111512 0)
(0.0206116 -0.000155989 0)
(0.0194579 -2.26154e-05 0)
(0.0206584 -7.21482e-05 0)
(0.020669 -0.000120943 0)
(0.0206573 -0.000169169 0)
(0.0195071 -2.45421e-05 0)
(0.0207096 -7.82716e-05 0)
(0.0207195 -0.0001312 0)
(0.0207069 -0.000183501 0)
(0.0195605 -2.66395e-05 0)
(0.0207653 -8.49345e-05 0)
(0.0207744 -0.000142358 0)
(0.0207606 -0.000199092 0)
(0.0196184 -2.89218e-05 0)
(0.0208257 -9.21865e-05 0)
(0.0208339 -0.000154505 0)
(0.0208189 -0.000216061 0)
(0.0196812 -3.14068e-05 0)
(0.0208912 -0.000100084 0)
(0.0208986 -0.000167734 0)
(0.0208822 -0.000234539 0)
(0.0197495 -3.41145e-05 0)
(0.0209624 -0.000108692 0)
(0.0209687 -0.000182151 0)
(0.0209508 -0.000254671 0)
(0.0198237 -3.70679e-05 0)
(0.0210397 -0.00011808 0)
(0.0210448 -0.000197871 0)
(0.0210253 -0.000276617 0)
(0.0199043 -4.02934e-05 0)
(0.0211236 -0.000128326 0)
(0.0211275 -0.000215022 0)
(0.0211062 -0.000300553 0)
(0.0199919 -4.38181e-05 0)
(0.0212148 -0.000139513 0)
(0.0212174 -0.000233743 0)
(0.0211941 -0.000326677 0)
(0.0200871 -4.7672e-05 0)
(0.021314 -0.000151737 0)
(0.0213151 -0.000254193 0)
(0.0212896 -0.000355209 0)
(0.0201908 -5.18881e-05 0)
(0.0214219 -0.000165103 0)
(0.0214213 -0.000276551 0)
(0.0213935 -0.000386398 0)
(0.0203036 -5.65031e-05 0)
(0.0215393 -0.000179733 0)
(0.0215369 -0.000301019 0)
(0.0215063 -0.00042052 0)
(0.0204265 -6.15604e-05 0)
(0.0216671 -0.000195762 0)
(0.0216626 -0.000327822 0)
(0.0216292 -0.000457886 0)
(0.0205604 -6.711e-05 0)
(0.0218063 -0.000213344 0)
(0.0217995 -0.000357211 0)
(0.0217628 -0.000498843 0)
(0.0207063 -7.32076e-05 0)
(0.021958 -0.00023265 0)
(0.0219487 -0.000389472 0)
(0.0219084 -0.000543784 0)
(0.0208656 -7.99142e-05 0)
(0.0221234 -0.000253874 0)
(0.0221113 -0.000424926 0)
(0.0220669 -0.000593153 0)
(0.0210394 -8.73002e-05 0)
(0.0223039 -0.000277238 0)
(0.0222887 -0.00046394 0)
(0.0222398 -0.000647455 0)
(0.0212294 -9.54466e-05 0)
(0.022501 -0.000302994 0)
(0.0224823 -0.000506933 0)
(0.0224284 -0.000707263 0)
(0.0214371 -0.000104448 0)
(0.0227164 -0.000331432 0)
(0.0226938 -0.00055438 0)
(0.0226342 -0.000773232 0)
(0.0216644 -0.000114412 0)
(0.0229521 -0.000362884 0)
(0.022925 -0.000606827 0)
(0.0228591 -0.000846111 0)
(0.0219135 -0.00012546 0)
(0.0232101 -0.000397731 0)
(0.023178 -0.000664905 0)
(0.023105 -0.000926764 0)
(0.0221868 -0.000137736 0)
(0.023493 -0.000436418 0)
(0.0234552 -0.000729346 0)
(0.023374 -0.00101619 0)
(0.0224868 -0.000151408 0)
(0.0238033 -0.000479462 0)
(0.023759 -0.000800998 0)
(0.0236687 -0.00111554 0)
(0.0228168 -0.000166671 0)
(0.0241442 -0.000527467 0)
(0.0240926 -0.000880847 0)
(0.0239918 -0.00122616 0)
(0.0231801 -0.000183758 0)
(0.0245193 -0.000581139 0)
(0.0244592 -0.000970049 0)
(0.0243465 -0.00134962 0)
(0.0235809 -0.00020294 0)
(0.0249325 -0.000641312 0)
(0.0248627 -0.00106997 0)
(0.0247363 -0.00148776 0)
(0.0240236 -0.000224541 0)
(0.0253885 -0.000708981 0)
(0.0253075 -0.00118223 0)
(0.0251653 -0.00164278 0)
(0.0245137 -0.000248952 0)
(0.0258926 -0.000785331 0)
(0.0257985 -0.00130875 0)
(0.025638 -0.00181725 0)
(0.0250574 -0.000276642 0)
(0.026451 -0.000871787 0)
(0.0263417 -0.00145184 0)
(0.0261599 -0.00201428 0)
(0.0256619 -0.000308182 0)
(0.0270707 -0.00097007 0)
(0.0269436 -0.00161427 0)
(0.0267369 -0.00223757 0)
(0.0263357 -0.000344267 0)
(0.0277603 -0.00108228 0)
(0.0276121 -0.00179944 0)
(0.027376 -0.00249164 0)
(0.027089 -0.00038576 0)
(0.0285296 -0.00121101 0)
(0.0283563 -0.00201148 0)
(0.0280854 -0.00278196 0)
(0.0279336 -0.00043373 0)
(0.0293902 -0.00135944 0)
(0.0291869 -0.0022555 0)
(0.0288745 -0.00311526 0)
(0.0288841 -0.000489523 0)
(0.030356 -0.00153156 0)
(0.0301165 -0.00253784 0)
(0.0297543 -0.00349985 0)
(0.0299578 -0.000554842 0)
(0.0314439 -0.0017324 0)
(0.0311603 -0.00286647 0)
(0.0307378 -0.0039461 0)
(0.031176 -0.00063187 0)
(0.0326739 -0.00196838 0)
(0.0323363 -0.0032515 0)
(0.03184 -0.00446706 0)
(0.0325648 -0.000723438 0)
(0.0340709 -0.00224776 0)
(0.0336663 -0.00370585 0)
(0.0330791 -0.0050793 0)
(0.0341569 -0.000833259 0)
(0.0356652 -0.00258131 0)
(0.0351768 -0.00424627 0)
(0.0344762 -0.00580408 0)
(0.0359932 -0.000966272 0)
(0.0374949 -0.00298324 0)
(0.0369002 -0.00489473 0)
(0.0360569 -0.00666899 0)
(0.0381259 -0.00112914 0)
(0.0396076 -0.00347261 0)
(0.0388766 -0.00568038 0)
(0.0378514 -0.00771019 0)
(0.0406226 -0.00133099 0)
(0.0420642 -0.00407529 0)
(0.0411558 -0.0066425 0)
(0.0398959 -0.00897571 0)
(0.0435712 -0.00158454 0)
(0.0449434 -0.00482709 0)
(0.0438007 -0.00783478 0)
(0.0422335 -0.0105302 0)
(0.0470908 -0.00190765 0)
(0.0483484 -0.00577802 0)
(0.0468907 -0.00933174 0)
(0.0449152 -0.0124617 0)
(0.0513357 -0.00232708 0)
(0.052416 -0.00700116 0)
(0.0505286 -0.011239 0)
(0.0480011 -0.0148921 0)
(0.0565452 -0.00287763 0)
(0.0573338 -0.00859719 0)
(0.0548437 -0.013708 0)
(0.0515587 -0.0179934 0)
(0.0629566 -0.00362745 0)
(0.0633552 -0.0107363 0)
(0.0600209 -0.0169621 0)
(0.0556667 -0.0220082 0)
(0.071259 -0.00463466 0)
(0.0708556 -0.0136126 0)
(0.0662502 -0.0213344 0)
(0.0603875 -0.0273024 0)
(0.081223 -0.00607235 0)
(0.0802903 -0.0176891 0)
(0.0739994 -0.0273356 0)
(0.065841 -0.0343771 0)
(0.0964799 -0.00815609 0)
(0.0927352 -0.0232737 0)
(0.0832567 -0.0357431 0)
(0.0718229 -0.0441595 0)
(0.110152 -0.0106159 0)
(0.107736 -0.0312135 0)
(0.0962731 -0.0477892 0)
(0.0793416 -0.0576102 0)
(0.145692 -0.0161875 0)
(0.133322 -0.0443266 0)
(0.110501 -0.0657745 0)
(0.0843061 -0.0781294 0)
(0.156893 -0.0170631 0)
(0.15059 -0.0525728 0)
(0.13419 -0.0875668 0)
(0.103835 -0.105782 0)
(0.244893 -0.0337399 0)
(0.224071 -0.097725 0)
(0.175389 -0.147766 0)
(0.101043 -0.167448 0)
(0.013356 -0.012729 0)
(0.0443812 0.00389551 0)
(0.0582573 0.0226528 0)
(0.0583991 0.0349818 0)
(0.0531276 0.0410537 0)
(0.0457306 0.0417987 0)
(0.0389522 0.0380357 0)
(0.0346108 0.031475 0)
(0.032246 0.024671 0)
(0.0304446 0.0191117 0)
(0.0288057 0.0149379 0)
(0.0273565 0.011822 0)
(0.0260907 0.0094534 0)
(0.0249926 0.00762255 0)
(0.0240481 0.00618707 0)
(0.0232411 0.00504751 0)
(0.0225554 0.00413324 0)
(0.0219759 0.00339298 0)
(0.0214887 0.00278889 0)
(0.0210812 0.00229265 0)
(0.0207422 0.0018828 0)
(0.0204621 0.00154281 0)
(0.0202322 0.00125977 0)
(0.0200453 0.00102359 0)
(0.0198948 0.000826166 0)
(0.0197753 0.000661056 0)
(0.0196819 0.000522928 0)
(0.0196106 0.000407503 0)
(0.0195577 0.000311177 0)
(0.0195202 0.000231013 0)
(0.0194955 0.000164504 0)
(0.0194814 0.000109572 0)
(0.0194759 6.4433e-05 0)
(0.0194774 2.76026e-05 0)
(0.0194845 -2.22139e-06 0)
(0.019496 -2.6092e-05 0)
(0.0195111 -4.49843e-05 0)
(0.0195287 -5.97201e-05 0)
(0.0195483 -7.09159e-05 0)
(0.0195692 -7.91642e-05 0)
(0.019591 -8.49885e-05 0)
(0.0196132 -8.87863e-05 0)
(0.0196356 -9.09038e-05 0)
(0.0196579 -9.16649e-05 0)
(0.0196799 -9.13381e-05 0)
(0.0197014 -9.01397e-05 0)
(0.0197222 -8.82559e-05 0)
(0.0197424 -8.58412e-05 0)
(0.0197618 -8.30256e-05 0)
(0.0197804 -7.9919e-05 0)
(0.0197981 -7.6614e-05 0)
(0.019815 -7.31839e-05 0)
(0.0198311 -6.96895e-05 0)
(0.0198462 -6.61807e-05 0)
(0.0198606 -6.26978e-05 0)
(0.0198741 -5.92718e-05 0)
(0.0198869 -5.59276e-05 0)
(0.0198988 -5.26851e-05 0)
(0.0199101 -4.95598e-05 0)
(0.0199206 -4.65584e-05 0)
(0.0199305 -4.36857e-05 0)
(0.0199398 -4.09467e-05 0)
(0.0199484 -3.83459e-05 0)
(0.0199565 -3.58837e-05 0)
(0.0199641 -3.35579e-05 0)
(0.0199711 -3.13661e-05 0)
(0.0199777 -2.93064e-05 0)
(0.0199838 -2.73732e-05 0)
(0.0199896 -2.55602e-05 0)
(0.0199949 -2.38614e-05 0)
(0.0199999 -2.22737e-05 0)
(0.0200046 -2.07939e-05 0)
(0.0200089 -1.94164e-05 0)
(0.020013 -1.81352e-05 0)
(0.0200168 -1.69458e-05 0)
(0.0200203 -1.58449e-05 0)
(0.0200236 -1.48283e-05 0)
(0.0200267 -1.38901e-05 0)
(0.0200296 -1.30253e-05 0)
(0.0200323 -1.22301e-05 0)
(0.0200349 -1.15023e-05 0)
(0.0200373 -1.08381e-05 0)
(0.0200395 -1.02342e-05 0)
(0.0200417 -9.68679e-06 0)
(0.0200437 -9.19359e-06 0)
(0.0200457 -8.7532e-06 0)
(0.0200475 -8.36339e-06 0)
(0.0200493 -8.02181e-06 0)
(0.020051 -7.72563e-06 0)
(0.0200526 -7.47375e-06 0)
(0.0200542 -7.26616e-06 0)
(0.0200557 -7.10119e-06 0)
(0.0200572 -6.97821e-06 0)
(0.0200587 -6.89603e-06 0)
(0.0200602 -6.85401e-06 0)
(0.0200617 -6.85292e-06 0)
(0.0200632 -6.89391e-06 0)
(0.0200647 -6.97677e-06 0)
(0.0200662 -7.10143e-06 0)
(0.0200677 -7.26823e-06 0)
(0.0200693 -7.47905e-06 0)
(0.020071 -7.7354e-06 0)
(0.0200727 -8.03968e-06 0)
(0.0200745 -8.3939e-06 0)
(0.0200763 -8.79954e-06 0)
(0.0200783 -9.2579e-06 0)
(0.0200803 -9.77261e-06 0)
(0.0200825 -1.03475e-05 0)
(0.0200848 -1.09868e-05 0)
(0.0200872 -1.16952e-05 0)
(0.0200898 -1.24763e-05 0)
(0.0200926 -1.33341e-05 0)
(0.0200956 -1.4274e-05 0)
(0.0200988 -1.53017e-05 0)
(0.0201022 -1.64247e-05 0)
(0.0201058 -1.76508e-05 0)
(0.0201098 -1.89876e-05 0)
(0.020114 -2.04425e-05 0)
(0.0201186 -2.20249e-05 0)
(0.0201235 -2.37442e-05 0)
(0.0201288 -2.56108e-05 0)
(0.0201346 -2.76373e-05 0)
(0.0201407 -2.9838e-05 0)
(0.0201474 -3.22266e-05 0)
(0.0201546 -3.48174e-05 0)
(0.0201624 -3.76267e-05 0)
(0.0201708 -4.06724e-05 0)
(0.0201799 -4.39746e-05 0)
(0.0201897 -4.75544e-05 0)
(0.0202004 -5.14358e-05 0)
(0.0202119 -5.56431e-05 0)
(0.0202243 -6.02037e-05 0)
(0.0202378 -6.51462e-05 0)
(0.0202523 -7.0503e-05 0)
(0.0202681 -7.63105e-05 0)
(0.0202851 -8.26076e-05 0)
(0.0203036 -8.9436e-05 0)
(0.0203236 -9.68414e-05 0)
(0.0203452 -0.000104872 0)
(0.0203686 -0.000113582 0)
(0.020394 -0.000123031 0)
(0.0204215 -0.000133285 0)
(0.0204512 -0.000144415 0)
(0.0204835 -0.000156497 0)
(0.0205184 -0.000169616 0)
(0.0205562 -0.000183864 0)
(0.0205972 -0.000199347 0)
(0.0206417 -0.000216174 0)
(0.0206898 -0.000234471 0)
(0.0207421 -0.000254371 0)
(0.0207987 -0.000276026 0)
(0.0208602 -0.000299602 0)
(0.0209269 -0.000325282 0)
(0.0209992 -0.00035327 0)
(0.0210778 -0.000383789 0)
(0.0211631 -0.000417089 0)
(0.0212557 -0.000453449 0)
(0.0213563 -0.000493183 0)
(0.0214657 -0.00053664 0)
(0.0215847 -0.000584208 0)
(0.021714 -0.000636327 0)
(0.0218548 -0.000693489 0)
(0.0220081 -0.000756253 0)
(0.022175 -0.000825251 0)
(0.022357 -0.000901202 0)
(0.0225555 -0.000984922 0)
(0.022772 -0.00107735 0)
(0.0230085 -0.00117955 0)
(0.023267 -0.00129278 0)
(0.0235497 -0.00141845 0)
(0.0238592 -0.00155823 0)
(0.0241984 -0.00171405 0)
(0.0245704 -0.00188819 0)
(0.0249789 -0.0020833 0)
(0.0254281 -0.00230256 0)
(0.0259225 -0.00254971 0)
(0.0264675 -0.00282926 0)
(0.0270691 -0.0031466 0)
(0.0277342 -0.0035083 0)
(0.0284707 -0.00392233 0)
(0.0292877 -0.0043985 0)
(0.0301954 -0.00494893 0)
(0.0312057 -0.00558874 0)
(0.0323322 -0.00633691 0)
(0.0335904 -0.00721753 0)
(0.0349979 -0.00826136 0)
(0.0365742 -0.00950817 0)
(0.0383408 -0.0110097 0)
(0.0403204 -0.0128342 0)
(0.0425353 -0.0150723 0)
(0.0450041 -0.0178456 0)
(0.0477362 -0.0213195 0)
(0.0507191 -0.0257198 0)
(0.0538991 -0.031362 0)
(0.0571339 -0.0386754 0)
(0.0601362 -0.0483179 0)
(0.0622538 -0.0610457 0)
(0.0618862 -0.0788276 0)
(0.0593852 -0.102415 0)
(0.0175084 -0.143469 0)
(-0.0103583 -0.0384363 0)
(0.0026179 -0.00206323 0)
(0.0129739 0.021361 0)
(0.0171116 0.0370931 0)
(0.0193857 0.0448281 0)
(0.0205893 0.0453272 0)
(0.0222616 0.0402163 0)
(0.0241281 0.0324403 0)
(0.0252088 0.0254406 0)
(0.0253903 0.0200248 0)
(0.0250721 0.0159287 0)
(0.0245336 0.012795 0)
(0.0239127 0.0103597 0)
(0.0232856 0.00844118 0)
(0.022693 0.00691112 0)
(0.0221537 0.00567829 0)
(0.0216747 0.00467642 0)
(0.0212571 0.00385626 0)
(0.0208981 0.00318068 0)
(0.0205932 0.00262133 0)
(0.0203373 0.00215625 0)
(0.0201249 0.0017683 0)
(0.0199508 0.00144387 0)
(0.0198099 0.00117216 0)
(0.0196978 0.000944362 0)
(0.0196104 0.000753422 0)
(0.019544 0.000593445 0)
(0.0194953 0.00045963 0)
(0.0194616 0.000347908 0)
(0.0194404 0.000254937 0)
(0.0194295 0.000177853 0)
(0.019427 0.000114245 0)
(0.0194314 6.20704e-05 0)
(0.0194412 1.96098e-05 0)
(0.0194554 -1.46827e-05 0)
(0.019473 -4.20289e-05 0)
(0.019493 -6.35366e-05 0)
(0.0195149 -8.01726e-05 0)
(0.019538 -9.27071e-05 0)
(0.0195619 -0.000101808 0)
(0.0195861 -0.000108061 0)
(0.0196103 -0.000111961 0)
(0.0196344 -0.000113937 0)
(0.019658 -0.000114355 0)
(0.019681 -0.000113516 0)
(0.0197033 -0.000111672 0)
(0.0197248 -0.000109048 0)
(0.0197455 -0.000105828 0)
(0.0197653 -0.000102165 0)
(0.0197841 -9.81838e-05 0)
(0.019802 -9.39891e-05 0)
(0.019819 -8.96695e-05 0)
(0.0198351 -8.52969e-05 0)
(0.0198503 -8.09273e-05 0)
(0.0198645 -7.66036e-05 0)
(0.019878 -7.23619e-05 0)
(0.0198906 -6.82317e-05 0)
(0.0199025 -6.42355e-05 0)
(0.0199136 -6.03884e-05 0)
(0.019924 -5.67013e-05 0)
(0.0199337 -5.31817e-05 0)
(0.0199428 -4.98337e-05 0)
(0.0199513 -4.66552e-05 0)
(0.0199592 -4.36438e-05 0)
(0.0199666 -4.07986e-05 0)
(0.0199736 -3.81193e-05 0)
(0.01998 -3.56023e-05 0)
(0.019986 -3.32404e-05 0)
(0.0199916 -3.10285e-05 0)
(0.0199968 -2.89614e-05 0)
(0.0200017 -2.70339e-05 0)
(0.0200062 -2.52374e-05 0)
(0.0200104 -2.35637e-05 0)
(0.0200144 -2.20068e-05 0)
(0.0200181 -2.05629e-05 0)
(0.0200215 -1.92267e-05 0)
(0.0200247 -1.7991e-05 0)
(0.0200277 -1.68501e-05 0)
(0.0200305 -1.5799e-05 0)
(0.0200332 -1.4834e-05 0)
(0.0200357 -1.39516e-05 0)
(0.020038 -1.31457e-05 0)
(0.0200402 -1.24119e-05 0)
(0.0200423 -1.17476e-05 0)
(0.0200443 -1.11503e-05 0)
(0.0200461 -1.06172e-05 0)
(0.0200479 -1.01448e-05 0)
(0.0200496 -9.73013e-06 0)
(0.0200513 -9.37063e-06 0)
(0.0200528 -9.06574e-06 0)
(0.0200544 -8.81457e-06 0)
(0.0200559 -8.61507e-06 0)
(0.0200574 -8.46531e-06 0)
(0.0200588 -8.36505e-06 0)
(0.0200602 -8.31441e-06 0)
(0.0200617 -8.31449e-06 0)
(0.0200631 -8.3651e-06 0)
(0.0200645 -8.4657e-06 0)
(0.020066 -8.61631e-06 0)
(0.0200675 -8.81829e-06 0)
(0.0200691 -9.074e-06 0)
(0.0200706 -9.38595e-06 0)
(0.0200723 -9.75557e-06 0)
(0.020074 -1.01845e-05 0)
(0.0200758 -1.06749e-05 0)
(0.0200777 -1.12301e-05 0)
(0.0200797 -1.1854e-05 0)
(0.0200818 -1.25515e-05 0)
(0.020084 -1.33276e-05 0)
(0.0200864 -1.41864e-05 0)
(0.0200889 -1.51326e-05 0)
(0.0200916 -1.61717e-05 0)
(0.0200945 -1.73101e-05 0)
(0.0200975 -1.85561e-05 0)
(0.0201008 -1.99179e-05 0)
(0.0201044 -2.14044e-05 0)