/*--------------------------------*- C++ -*----------------------------------*\
  =========                 |
  \\      /  F ield         | OpenFOAM: The Open Source CFD Toolbox
   \\    /   O peration     | Website:  https://openfoam.org
    \\  /    A nd           | Version:  dev
     \\/     M anipulation  |
\*---------------------------------------------------------------------------*/
FoamFile
{
    version     2.0;
    format      ascii;
    class       surfaceScalarField;
    location    "19";
    object      phi;
}
// * * * * * * * * * * * * * * * * * * * * * * * * * * * * * * * * * * * * * //

dimensions      [1 0 -1 0 0 0 0];

internalField   nonuniform List<scalar> 
15760
(
8.73805e-07
0.00115775
-4.49687e-06
0.00116398
-8.3256e-06
0.00116244
0.00114828
1.99592e-06
-2.62373e-06
0.00116037
-1.20326e-05
0.00117339
-2.28467e-05
0.00117325
0.00113936
-1.39237e-05
-6.82368e-06
0.00116719
-2.16937e-05
0.00118826
-4.15893e-05
0.00119314
0.00113266
-3.48913e-05
-1.02586e-05
0.00117745
-2.94432e-05
0.00120745
-5.64802e-05
0.00122018
0.00113565
-5.94777e-05
-1.02984e-05
0.00118775
-3.08046e-05
0.00122795
-6.18637e-05
0.00125124
0.00115432
-8.05282e-05
-4.6853e-06
0.00119244
-2.1169e-05
0.00124444
-5.00115e-05
0.00128008
0.00118882
-8.45137e-05
7.42774e-06
0.00118501
2.36668e-06
0.0012495
-1.46412e-05
0.00129709
0.00123041
-5.62311e-05
2.67009e-05
0.00115831
4.03992e-05
0.0012358
4.48319e-05
0.00129266
0.00126213
1.31135e-05
5.11618e-05
0.00110715
9.00675e-05
0.00119689
0.000122805
0.00125992
0.00126636
0.000118576
7.69658e-05
0.00103018
0.000144765
0.00112909
0.000210332
0.00119436
0.00122597
0.000250717
9.93473e-05
0.000930832
0.000194229
0.00103421
0.000290409
0.00109818
0.00113923
0.000377152
0.000113877
0.000816955
0.000226957
0.000921133
0.000344333
0.0009808
0.00102022
0.000463345
0.000118705
0.00069825
0.000236799
0.000803039
0.000360908
0.000856692
0.000886918
0.000494209
0.000115132
0.000583118
0.000225445
0.000692726
0.000341153
0.000740984
0.000759515
0.000468556
0.000105284
0.000477834
0.000200524
0.000597486
0.000299041
0.000642467
0.000653197
0.00040536
8.92591e-05
0.000388575
0.000168571
0.000518174
0.000249166
0.000561872
0.000569929
0.000332434
6.75936e-05
0.000320982
0.000133195
0.000452573
0.000199339
0.000495728
0.000503999
0.000265269
4.45305e-05
0.000276451
9.77194e-05
0.000399384
0.000152879
0.000440569
0.000449554
0.000207323
2.62646e-05
0.000250186
6.77744e-05
0.000357875
0.000114
0.000394343
0.000402778
0.000160776
1.57286e-05
0.000234457
4.76584e-05
0.000325945
8.62973e-05
0.000355704
0.000362068
0.000127007
1.16426e-05
0.000222815
3.70452e-05
0.000300542
6.93867e-05
0.000323363
0.000326998
0.000104457
1.10641e-05
0.000211751
3.245e-05
0.000279157
5.96867e-05
0.000296126
0.000297278
8.9407e-05
1.1417e-05
0.000200334
3.02082e-05
0.000260365
5.3376e-05
0.000272958
0.000272287
7.83666e-05
1.14708e-05
0.000188863
2.82889e-05
0.000243547
4.82395e-05
0.000253008
0.00025119
6.93364e-05
1.10786e-05
0.000177784
2.61912e-05
0.000228435
4.35464e-05
0.000235653
0.000233218
6.15188e-05
1.04293e-05
0.000167355
2.40041e-05
0.00021486
3.91948e-05
0.000220462
0.000217773
5.46394e-05
9.67176e-06
0.000157683
2.18519e-05
0.00020268
3.51939e-05
0.00020712
0.000204404
4.85631e-05
8.88117e-06
0.000148802
1.97945e-05
0.000191766
3.15379e-05
0.000195377
0.000192759
4.31828e-05
8.09748e-06
0.000140705
1.78583e-05
0.000182005
2.82099e-05
0.000185025
0.000182565
3.8404e-05
7.34148e-06
0.000133363
1.60521e-05
0.000173295
2.5185e-05
0.000175892
0.000173608
3.41418e-05
6.62608e-06
0.000126737
1.4379e-05
0.000165542
2.24371e-05
0.000167834
0.000165722
3.03232e-05
5.94896e-06
0.000120788
1.28284e-05
0.000158662
1.99343e-05
0.000160728
0.000158774
2.68827e-05
5.31221e-06
0.000115476
1.13938e-05
0.000152581
1.76481e-05
0.000154474
0.000152657
2.37647e-05
4.72131e-06
0.000110754
1.0075e-05
0.000147227
1.55609e-05
0.000148988
0.000147291
2.09275e-05
4.17201e-06
0.000106582
8.85964e-06
0.000142539
1.36467e-05
0.000144201
0.000142609
1.83281e-05
3.65285e-06
0.00010293
7.72367e-06
0.000138469
1.18684e-05
0.000140056
0.000138559
1.59188e-05
3.15693e-06
9.97726e-05
6.64929e-06
0.000134976
1.01979e-05
0.000136508
0.000135093
1.36636e-05
2.68428e-06
9.70884e-05
5.63188e-06
0.000132029
8.62388e-06
0.000133516
0.000132173
1.15438e-05
2.23604e-06
9.48523e-05
4.67074e-06
0.000129594
7.14061e-06
0.000131046
0.000129767
9.54705e-06
1.81068e-06
9.30416e-05
3.76184e-06
0.000127643
5.73976e-06
0.000129068
0.000127846
7.66015e-06
1.4054e-06
9.16362e-05
2.89924e-06
0.000126149
4.41176e-06
0.000127555
0.000126388
5.87037e-06
1.01797e-06
9.06182e-05
2.07817e-06
0.000125089
3.14914e-06
0.000126484
0.000125369
4.16787e-06
6.47469e-07
8.99708e-05
1.29576e-06
0.000124441
1.94679e-06
0.000125833
0.00012477
2.54579e-06
2.93633e-07
8.96771e-05
5.49465e-07
0.000124185
8.00642e-07
0.000125582
0.000124571
9.99556e-07
-4.51283e-08
8.97222e-05
-1.63598e-07
0.000124303
-2.91693e-07
0.00012571
0.000124752
-4.72686e-07
-3.66989e-07
9.00892e-05
-8.39232e-07
0.000124775
-1.32678e-06
0.000126198
0.000125294
-1.86852e-06
-6.70737e-07
9.07599e-05
-1.47653e-06
0.000125581
-2.30314e-06
0.000127024
0.000126177
-3.18581e-06
-9.57239e-07
9.17172e-05
-2.07611e-06
0.0001267
-3.22099e-06
0.000128169
0.00012738
-4.42417e-06
-1.22584e-06
9.2943e-05
-2.63667e-06
0.000128111
-4.07852e-06
0.000129611
0.000128882
-5.58106e-06
-1.47576e-06
9.44188e-05
-3.15685e-06
0.000129792
-4.87369e-06
0.000131328
0.000130662
-6.65361e-06
-1.70621e-06
9.6125e-05
-3.63533e-06
0.000131721
-5.6045e-06
0.000133297
0.000132697
-7.63891e-06
-1.91652e-06
9.80415e-05
-4.07088e-06
0.000133875
-6.26908e-06
0.000135495
0.000134962
-8.53432e-06
-2.10609e-06
0.000100148
-4.46248e-06
0.000136232
-6.86592e-06
0.000137899
0.000137434
-9.33769e-06
-2.27452e-06
0.000102422
-4.80939e-06
0.000138767
-7.39395e-06
0.000140483
0.000140087
-1.00475e-05
-2.42156e-06
0.000104844
-5.11129e-06
0.000141456
-7.85269e-06
0.000143225
0.000142898
-1.06632e-05
-2.54718e-06
0.000107391
-5.36822e-06
0.000144277
-8.24232e-06
0.000146099
0.00014584
-1.11848e-05
-2.65157e-06
0.000110042
-5.58072e-06
0.000147207
-8.56367e-06
0.000149082
0.00014889
-1.16137e-05
-2.73514e-06
0.000112777
-5.74975e-06
0.000150221
-8.81826e-06
0.00015215
0.000152024
-1.19518e-05
-2.7985e-06
0.000115576
-5.87665e-06
0.000153299
-9.00824e-06
0.000155282
0.000155218
-1.22022e-05
-2.84247e-06
0.000118418
-5.96321e-06
0.00015642
-9.13638e-06
0.000158455
0.00015845
-1.23688e-05
-2.86803e-06
0.000121286
-6.01152e-06
0.000159564
-9.20599e-06
0.00016165
0.0001617
-1.24561e-05
-2.87632e-06
0.000124163
-6.02399e-06
0.000162711
-9.22077e-06
0.000164846
0.000164949
-1.24692e-05
-2.86855e-06
0.000127031
-6.00324e-06
0.000165846
-9.18484e-06
0.000168028
0.000168177
-1.24138e-05
-2.84606e-06
0.000129877
-5.95215e-06
0.000168952
-9.10265e-06
0.000171178
0.000171371
-1.2296e-05
-2.81028e-06
0.000132688
-5.87366e-06
0.000172015
-8.97876e-06
0.000174284
0.000174514
-1.21221e-05
-2.76266e-06
0.00013545
-5.7708e-06
0.000175024
-8.81784e-06
0.000177331
0.000177595
-1.18985e-05
-2.70465e-06
0.000138155
-5.64659e-06
0.000177966
-8.62453e-06
0.000180309
0.000180602
-1.16316e-05
-2.63766e-06
0.000140793
-5.504e-06
0.000180832
-8.40339e-06
0.000183208
0.000183526
-1.13275e-05
-2.56308e-06
0.000143356
-5.3459e-06
0.000183615
-8.15888e-06
0.000186021
0.000186359
-1.09923e-05
-2.48225e-06
0.000145838
-5.17506e-06
0.000186307
-7.89523e-06
0.000188741
0.000189096
-1.06318e-05
-2.39642e-06
0.000148234
-4.99411e-06
0.000188905
-7.61642e-06
0.000191363
0.000191731
-1.02514e-05
-2.30675e-06
0.000150541
-4.80546e-06
0.000191404
-7.32617e-06
0.000193884
0.000194261
-9.85616e-06
-2.21436e-06
0.000152755
-4.61136e-06
0.000193801
-7.0279e-06
0.000196301
0.000196684
-9.45059e-06
-2.1202e-06
0.000154876
-4.41385e-06
0.000196095
-6.72472e-06
0.000198611
0.000198998
-9.03893e-06
-2.02518e-06
0.000156901
-4.21476e-06
0.000198284
-6.4194e-06
0.000200816
0.000201203
-8.6249e-06
-1.93008e-06
0.000158831
-4.01571e-06
0.00020037
-6.11443e-06
0.000202915
0.000203301
-8.21179e-06
-1.8356e-06
0.000160666
-3.81813e-06
0.000202352
-5.81195e-06
0.000204909
0.000205291
-7.8025e-06
-1.74234e-06
0.000162409
-3.62326e-06
0.000204233
-5.51382e-06
0.000206799
0.000207177
-7.39951e-06
-1.65081e-06
0.00016406
-3.43212e-06
0.000206015
-5.22163e-06
0.000208589
0.00020896
-7.00489e-06
-1.56143e-06
0.000165621
-3.24562e-06
0.000207699
-4.93669e-06
0.00021028
0.000210644
-6.62038e-06
-1.47456e-06
0.000167096
-3.06447e-06
0.000209289
-4.66008e-06
0.000211875
0.000212231
-6.2474e-06
-1.39049e-06
0.000168486
-2.88924e-06
0.000210787
-4.39264e-06
0.000213379
0.000213726
-5.88706e-06
-1.30944e-06
0.000169795
-2.72037e-06
0.000212198
-4.13505e-06
0.000214794
0.000215131
-5.5402e-06
-1.23156e-06
0.000171027
-2.55818e-06
0.000213525
-3.88776e-06
0.000216123
0.000216451
-5.20746e-06
-1.15697e-06
0.000172184
-2.40291e-06
0.000214771
-3.65112e-06
0.000217371
0.000217689
-4.88921e-06
-1.08574e-06
0.00017327
-2.25468e-06
0.00021594
-3.42531e-06
0.000218542
0.000218849
-4.58569e-06
-1.01791e-06
0.000174288
-2.11355e-06
0.000217035
-3.21039e-06
0.000219639
0.000219936
-4.29696e-06
-9.53457e-07
0.000175241
-1.97951e-06
0.000218061
-3.00633e-06
0.000220666
0.000220952
-4.02296e-06
-8.92364e-07
0.000176133
-1.85249e-06
0.000219022
-2.81302e-06
0.000221626
0.000221903
-3.76351e-06
-8.34576e-07
0.000176968
-1.73239e-06
0.000219919
-2.63028e-06
0.000222524
0.000222791
-3.51834e-06
-7.80025e-07
0.000177748
-1.61903e-06
0.000220758
-2.45786e-06
0.000223363
0.00022362
-3.28711e-06
-7.28633e-07
0.000178477
-1.51224e-06
0.000221542
-2.29548e-06
0.000224146
0.000224394
-3.06941e-06
-6.8029e-07
0.000179157
-1.41183e-06
0.000222274
-2.14281e-06
0.000224877
0.000225116
-2.86481e-06
-6.34894e-07
0.000179792
-1.31755e-06
0.000222956
-1.99951e-06
0.000225559
0.000225789
-2.67282e-06
-5.92331e-07
0.000180384
-1.22917e-06
0.000223593
-1.86521e-06
0.000226195
0.000226417
-2.49295e-06
-5.52493e-07
0.000180937
-1.14646e-06
0.000224187
-1.73955e-06
0.000226788
0.000227002
-2.32468e-06
-5.15251e-07
0.000181452
-1.06917e-06
0.000224741
-1.62212e-06
0.000227341
0.000227547
-2.16748e-06
-4.80494e-07
0.000181932
-9.97031e-07
0.000225257
-1.51255e-06
0.000227857
0.000228056
-2.02084e-06
-4.48106e-07
0.00018238
-9.29806e-07
0.000225739
-1.41047e-06
0.000228337
0.00022853
-1.88425e-06
-4.17956e-07
0.000182798
-8.67264e-07
0.000226188
-1.31549e-06
0.000228786
0.000228971
-1.75718e-06
-3.89944e-07
0.000183188
-8.0915e-07
0.000226608
-1.22726e-06
0.000229204
0.000229383
-1.63917e-06
-3.63953e-07
0.000183552
-7.55242e-07
0.000226999
-1.14542e-06
0.000229594
0.000229767
-1.52972e-06
-3.39878e-07
0.000183892
-7.05319e-07
0.000227364
-1.06964e-06
0.000229958
0.000230126
-1.42838e-06
-3.1762e-07
0.00018421
-6.59169e-07
0.000227706
-9.99584e-07
0.000230299
0.000230461
-1.33472e-06
-2.97083e-07
0.000184507
-6.16582e-07
0.000228025
-9.34951e-07
0.000230617
0.000230775
-1.24831e-06
-2.78169e-07
0.000184785
-5.77376e-07
0.000228325
-8.75448e-07
0.000230915
0.000231068
-1.16877e-06
-2.60801e-07
0.000185046
-5.41371e-07
0.000228605
-8.20797e-07
0.000231194
0.000231343
-1.09573e-06
-2.44881e-07
0.000185291
-5.08394e-07
0.000228869
-7.70748e-07
0.000231457
0.000231601
-1.02883e-06
-2.30351e-07
0.000185521
-4.78277e-07
0.000229117
-7.25051e-07
0.000231704
0.000231844
-9.67754e-07
-2.17128e-07
0.000185738
-4.50894e-07
0.00022935
-6.83485e-07
0.000231936
0.000232072
-9.12205e-07
-2.05157e-07
0.000185943
-4.26097e-07
0.000229571
-6.45844e-07
0.000232156
0.000232288
-8.61908e-07
-1.94367e-07
0.000186138
-4.03763e-07
0.000229781
-6.1195e-07
0.000232364
0.000232493
-8.16598e-07
-1.84707e-07
0.000186322
-3.83787e-07
0.00022998
-5.81614e-07
0.000232562
0.000232688
-7.76058e-07
-1.76138e-07
0.000186498
-3.66055e-07
0.00023017
-5.54694e-07
0.000232751
0.000232873
-7.40073e-07
-1.68612e-07
0.000186667
-3.50483e-07
0.000230352
-5.31047e-07
0.000232931
0.00023305
-7.0846e-07
-1.62082e-07
0.000186829
-3.36994e-07
0.000230526
-5.10552e-07
0.000233105
0.000233221
-6.81058e-07
-1.5652e-07
0.000186986
-3.25522e-07
0.000230695
-4.93109e-07
0.000233272
0.000233385
-6.57725e-07
-1.51902e-07
0.000187137
-3.16004e-07
0.00023086
-4.78627e-07
0.000233435
0.000233545
-6.38342e-07
-1.48204e-07
0.000187286
-3.08394e-07
0.00023102
-4.67033e-07
0.000233593
0.000233701
-6.22821e-07
-1.45404e-07
0.000187431
-3.02653e-07
0.000231177
-4.58275e-07
0.000233749
0.000233854
-6.11067e-07
-1.43492e-07
0.000187575
-2.98758e-07
0.000231332
-4.52309e-07
0.000233903
0.000234004
-6.0305e-07
-1.42462e-07
0.000187717
-2.96698e-07
0.000231487
-4.49117e-07
0.000234055
0.000234154
-5.98728e-07
-1.42318e-07
0.000187859
-2.96462e-07
0.000231641
-4.48693e-07
0.000234207
0.000234303
-5.9808e-07
-1.43051e-07
0.000188002
-2.98068e-07
0.000231796
-4.51042e-07
0.00023436
0.000234454
-6.01135e-07
-1.44681e-07
0.000188147
-3.01521e-07
0.000231953
-4.56181e-07
0.000234515
0.000234605
-6.07915e-07
-1.47206e-07
0.000188294
-3.06851e-07
0.000232112
-4.64161e-07
0.000234672
0.00023476
-6.18469e-07
-1.50653e-07
0.000188445
-3.14095e-07
0.000232276
-4.7503e-07
0.000234833
0.000234917
-6.32882e-07
-1.55049e-07
0.0001886
-3.23308e-07
0.000232444
-4.88884e-07
0.000234999
0.00023508
-6.51263e-07
-1.6042e-07
0.00018876
-3.34557e-07
0.000232618
-5.05807e-07
0.00023517
0.000235248
-6.73737e-07
-1.6681e-07
0.000188927
-3.47922e-07
0.000232799
-5.25922e-07
0.000235348
0.000235422
-7.00453e-07
-1.74267e-07
0.000189101
-3.63489e-07
0.000232988
-5.49367e-07
0.000235534
0.000235605
-7.31601e-07
-1.82825e-07
0.000189284
-3.81372e-07
0.000233187
-5.76308e-07
0.000235729
0.000235796
-7.67391e-07
-1.92564e-07
0.000189477
-4.01695e-07
0.000233396
-6.06918e-07
0.000235934
0.000235997
-8.08069e-07
-2.0354e-07
0.00018968
-4.24589e-07
0.000233617
-6.41412e-07
0.000236151
0.000236209
-8.53911e-07
-2.15835e-07
0.000189896
-4.50215e-07
0.000233851
-6.80023e-07
0.000236381
0.000236434
-9.05227e-07
-2.29532e-07
0.000190126
-4.78748e-07
0.000234101
-7.23022e-07
0.000236625
0.000236674
-9.62368e-07
-2.44718e-07
0.00019037
-5.10389e-07
0.000234366
-7.70692e-07
0.000236885
0.000236929
-1.02572e-06
-2.61511e-07
0.000190632
-5.4535e-07
0.00023465
-8.23366e-07
0.000237163
0.000237201
-1.09572e-06
-2.80023e-07
0.000190912
-5.83875e-07
0.000234954
-8.81412e-07
0.000237461
0.000237493
-1.17285e-06
-3.00386e-07
0.000191212
-6.26233e-07
0.00023528
-9.45231e-07
0.00023778
0.000237805
-1.25766e-06
-3.22734e-07
0.000191535
-6.72732e-07
0.00023563
-1.01527e-06
0.000238122
0.000238141
-1.35071e-06
-3.47244e-07
0.000191882
-7.23691e-07
0.000236006
-1.09202e-06
0.000238491
0.000238501
-1.45268e-06
-3.7409e-07
0.000192256
-7.79478e-07
0.000236412
-1.17603e-06
0.000238887
0.000238889
-1.56427e-06
-4.03461e-07
0.00019266
-8.40496e-07
0.000236849
-1.26789e-06
0.000239315
0.000239308
-1.68629e-06
-4.35581e-07
0.000193095
-9.07179e-07
0.00023732
-1.36828e-06
0.000239776
0.000239759
-1.8196e-06
-4.70684e-07
0.000193566
-9.80024e-07
0.00023783
-1.47792e-06
0.000240274
0.000240246
-1.96517e-06
-5.09034e-07
0.000194075
-1.05957e-06
0.00023838
-1.59761e-06
0.000240812
0.000240773
-2.12407e-06
-5.50927e-07
0.000194626
-1.14642e-06
0.000238976
-1.72825e-06
0.000241393
0.000241342
-2.29747e-06
-5.96686e-07
0.000195223
-1.24122e-06
0.00023962
-1.87083e-06
0.000242023
0.000241958
-2.48667e-06
-6.46675e-07
0.000195869
-1.34472e-06
0.000240318
-2.02643e-06
0.000242705
0.000242625
-2.6931e-06
-7.01286e-07
0.000196571
-1.45772e-06
0.000241075
-2.19627e-06
0.000243443
0.000243347
-2.91836e-06
-7.60975e-07
0.000197332
-1.58113e-06
0.000241895
-2.38167e-06
0.000244244
0.000244129
-3.1642e-06
-8.26217e-07
0.000198158
-1.71593e-06
0.000242785
-2.58411e-06
0.000245112
0.000244978
-3.43256e-06
-8.97573e-07
0.000199055
-1.86324e-06
0.00024375
-2.80526e-06
0.000246054
0.000245898
-3.72561e-06
-9.75662e-07
0.000200031
-2.0243e-06
0.000244799
-3.04692e-06
0.000247077
0.000246897
-4.04575e-06
-1.06116e-06
0.000201092
-2.20047e-06
0.000245938
-3.31116e-06
0.000248187
0.000247981
-4.39565e-06
-1.15485e-06
0.000202247
-2.39332e-06
0.000247177
-3.60025e-06
0.000249394
0.000249159
-4.77831e-06
-1.25759e-06
0.000203505
-2.60457e-06
0.000248524
-3.91674e-06
0.000250707
0.00025044
-5.19704e-06
-1.37036e-06
0.000204875
-2.83616e-06
0.000249989
-4.2635e-06
0.000252134
0.000251832
-5.6556e-06
-1.49424e-06
0.000206369
-3.09028e-06
0.000251585
-4.64373e-06
0.000253687
0.000253346
-6.15817e-06
-1.6305e-06
0.000208
-3.36938e-06
0.000253324
-5.06106e-06
0.000255379
0.000254995
-6.70947e-06
-1.78052e-06
0.00020978
-3.67625e-06
0.00025522
-5.51957e-06
0.000257222
0.00025679
-7.31481e-06
-1.94592e-06
0.000211726
-4.01405e-06
0.000257288
-6.02389e-06
0.000259232
0.000258746
-7.9802e-06
-2.12851e-06
0.000213855
-4.38637e-06
0.000259546
-6.57927e-06
0.000261425
0.000260879
-8.71245e-06
-2.33039e-06
0.000216185
-4.79731e-06
0.000262013
-7.1917e-06
0.000263819
0.000263207
-9.5193e-06
-2.55396e-06
0.000218739
-5.25156e-06
0.00026471
-7.86803e-06
0.000266436
0.000265749
-1.04096e-05
-2.80199e-06
0.000221541
-5.75453e-06
0.000267663
-8.61608e-06
0.000269297
0.000268526
-1.13934e-05
-3.07767e-06
0.000224619
-6.3124e-06
0.000270898
-9.44486e-06
0.00027243
0.000271563
-1.24824e-05
-3.38471e-06
0.000228003
-6.93235e-06
0.000274445
-1.03648e-05
0.000275862
0.000274889
-1.36899e-05
-3.72741e-06
0.000231731
-7.62272e-06
0.000278341
-1.13879e-05
0.000279627
0.000278532
-1.50314e-05
-4.11082e-06
0.000235841
-8.39323e-06
0.000282623
-1.25283e-05
0.000283763
0.000282529
-1.65247e-05
-4.54088e-06
0.000240382
-9.25527e-06
0.000287337
-1.38023e-05
0.000288309
0.000286917
-1.81909e-05
-5.0246e-06
0.000245407
-1.02222e-05
0.000292535
-1.52291e-05
0.000293316
0.000291743
-2.00545e-05
-5.57035e-06
0.000250977
-1.131e-05
0.000298275
-1.68316e-05
0.000298838
0.000297055
-2.21442e-05
-6.18796e-06
0.000257165
-1.25375e-05
0.000304624
-1.86368e-05
0.000304937
0.000302913
-2.44943e-05
-6.88935e-06
0.000264055
-1.39273e-05
0.000311662
-2.0677e-05
0.000311687
0.000309381
-2.71455e-05
-7.68879e-06
0.000271743
-1.55065e-05
0.00031948
-2.29908e-05
0.000319171
0.000316537
-3.01464e-05
-8.60402e-06
0.000280347
-1.73082e-05
0.000328184
-2.5625e-05
0.000327488
0.000324467
-3.35555e-05
-9.65529e-06
0.000290003
-1.93727e-05
0.000337902
-2.86369e-05
0.000336752
0.000333274
-3.74438e-05
-1.0872e-05
0.000300875
-2.17494e-05
0.000348779
-3.2096e-05
0.000347099
0.000343076
-4.18982e-05
-1.22785e-05
0.000313153
-2.44999e-05
0.000361
-3.60894e-05
0.000358688
0.000354012
-4.70247e-05
-1.39351e-05
0.000327088
-2.77008e-05
0.000374766
-4.07244e-05
0.000371712
0.000366244
-5.29568e-05
-1.58533e-05
0.000342942
-3.14507e-05
0.000390363
-4.6138e-05
0.000386399
0.000379962
-5.98566e-05
-1.81732e-05
0.000361115
-3.58703e-05
0.000408061
-5.25015e-05
0.000403031
0.000395398
-6.79375e-05
-2.08656e-05
0.00038198
-4.11303e-05
0.000428325
-6.00391e-05
0.000421939
0.000412817
-7.74575e-05
-2.42006e-05
0.000406181
-4.74251e-05
0.00045155
-6.90387e-05
0.000443553
0.000432545
-8.87673e-05
-2.8141e-05
0.000434322
-5.50615e-05
0.00047847
-7.98849e-05
0.000468376
0.000454961
-0.0001023
-3.31003e-05
0.000467422
-6.43888e-05
0.000509759
-9.30839e-05
0.000497071
0.00048053
-0.000118653
-3.91387e-05
0.000506561
-7.59619e-05
0.000546582
-0.000109335
0.000530444
0.000509783
-0.000138588
-4.68851e-05
0.000553446
-9.04773e-05
0.000590174
-0.000129581
0.000569549
0.000543372
-0.000163171
-5.66828e-05
0.000610129
-0.000109008
0.000642499
-0.000155171
0.000615712
0.000582011
-0.000193811
-6.95506e-05
0.000679679
-0.000133016
0.000705964
-0.000187992
0.000670689
0.000626532
-0.000232513
-8.66666e-05
0.000766346
-0.000164816
0.000784114
-0.00023081
0.000736682
0.000677735
-0.000282013
-0.000109587
0.000875933
-0.000207507
0.000882034
-0.000287762
0.000816937
0.000736332
-0.000346358
-0.000142264
0.0010182
-0.00026679
0.00100656
-0.000364855
0.000915001
0.000802502
-0.000431025
-0.000186
0.0012042
-0.000348827
0.00116939
-0.000472725
0.0010389
0.000875413
-0.000545636
-0.000247385
0.00145158
-0.000465763
0.00138777
-0.000623939
0.00119708
0.000951862
-0.000700388
-0.000350671
0.00180225
-0.000641336
0.00167843
-0.000855152
0.00141089
0.00103002
-0.000933313
-0.00040452
0.00220677
-0.000810987
0.0020849
-0.00115197
0.00175187
0.00112755
-0.00124949
-0.0007738
-0.0014141
-0.00179668
-0.00196543
7.78116e-05
-7.58157e-05
0.00017299
-0.000109102
0.000285494
-0.000147396
0.000414453
-0.000188437
0.000549816
-0.000215891
0.000677966
-0.000212664
0.00078879
-0.000167056
0.000884061
-8.21577e-05
0.000967824
3.48126e-05
0.00101915
0.000199394
0.00100791
0.000388388
0.000941146
0.000530108
0.000840898
0.000594456
0.0007282
0.000581256
0.000626738
0.000506823
0.000547631
0.000411541
0.000485945
0.000326956
0.00043501
0.000258258
0.000390537
0.000205249
0.000351105
0.00016644
0.000316828
0.000138733
0.000287813
0.000118423
0.000263578
0.000102602
0.0002433
8.96144e-05
0.000226164
7.8654e-05
0.000211519
6.92851e-05
0.000198871
6.12107e-05
0.000187857
5.4197e-05
0.000178205
4.80561e-05
0.00016971
4.26369e-05
0.000162215
3.78181e-05
0.000155598
3.34999e-05
0.000149762
2.96007e-05
0.000144634
2.60556e-05
0.000140157
2.28054e-05
0.000136281
1.9794e-05
0.000132965
1.69796e-05
0.000130174
1.43353e-05
0.000127879
1.1842e-05
0.000126057
9.48187e-06
0.000124688
7.23969e-06
0.000123752
5.10387e-06
0.000123231
3.06645e-06
0.000123108
1.12268e-06
0.000123364
-7.28874e-07
0.000123982
-2.48638e-06
0.000124943
-4.14669e-06
0.000126227
-5.70826e-06
0.000127814
-7.16756e-06
0.00012968
-8.52046e-06
0.000131804
-9.76292e-06
0.000134161
-1.08913e-05
0.000136726
-1.19027e-05
0.000139474
-1.2795e-05
0.000142378
-1.35673e-05
0.000145413
-1.42198e-05
0.000148553
-1.47541e-05
0.000151775
-1.51729e-05
0.000155052
-1.548e-05
0.000158364
-1.56804e-05
0.000161688
-1.57802e-05
0.000165005
-1.57859e-05
0.000168296
-1.57051e-05
0.000171546
-1.55455e-05
0.000174739
-1.53153e-05
0.000177863
-1.50227e-05
0.000180907
-1.46759e-05
0.000183862
-1.42828e-05
0.000186721
-1.38513e-05
0.000189478
-1.33885e-05
0.000192128
-1.29015e-05
0.000194669
-1.23966e-05
0.000197097
-1.18795e-05
0.000199414
-1.13556e-05
0.000201619
-1.08296e-05
0.000203712
-1.03054e-05
0.000205697
-9.78685e-06
0.000207574
-9.27686e-06
0.000209347
-8.77805e-06
0.000211019
-8.29256e-06
0.000212594
-7.82209e-06
0.000214075
-7.36799e-06
0.000215466
-6.93126e-06
0.000216771
-6.51262e-06
0.000217995
-6.11254e-06
0.00021914
-5.73125e-06
0.000220212
-5.36877e-06
0.000221214
-5.02499e-06
0.00022215
-4.69966e-06
0.000223024
-4.3924e-06
0.00022384
-4.10275e-06
0.000224601
-3.83019e-06
0.00022531
-3.57413e-06
0.000225971
-3.33396e-06
0.000226587
-3.10903e-06
0.000227161
-2.89867e-06
0.000227696
-2.70222e-06
0.000228194
-2.51903e-06
0.000228658
-2.34843e-06
0.000229091
-2.18977e-06
0.000229494
-2.04244e-06
0.00022987
-1.90584e-06
0.000230221
-1.77939e-06
0.000230549
-1.66253e-06
0.000230856
-1.55475e-06
0.000231142
-1.45555e-06
0.000231411
-1.36445e-06
0.000231663
-1.28104e-06
0.0002319
-1.20489e-06
0.000232124
-1.13563e-06
0.000232335
-1.07293e-06
0.000232535
-1.01645e-06
0.000232724
-9.65907e-07
0.000232905
-9.21052e-07
0.000233079
-8.81634e-07
0.000233245
-8.47468e-07
0.000233406
-8.18364e-07
0.000233562
-7.94183e-07
0.000233713
-7.74799e-07
0.000233863
-7.60121e-07
0.00023401
-7.50078e-07
0.000234155
-7.44629e-07
0.000234301
-7.43767e-07
0.000234448
-7.47497e-07
0.000234595
-7.5586e-07
0.000234746
-7.68921e-07
0.0002349
-7.86776e-07
0.000235058
-8.09551e-07
0.000235222
-8.3741e-07
0.000235392
-8.70548e-07
0.000235569
-9.09192e-07
0.000235756
-9.53598e-07
0.000235952
-1.00407e-06
0.000236159
-1.06095e-06
0.000236378
-1.12462e-06
0.000236611
-1.19551e-06
0.00023686
-1.27412e-06
0.000237125
-1.36097e-06
0.000237409
-1.45667e-06
0.000237713
-1.56185e-06
0.000238039
-1.67728e-06
0.000238391
-1.80375e-06
0.000238768
-1.94214e-06
0.000239176
-2.09343e-06
0.000239615
-2.2587e-06
0.000240089
-2.43915e-06
0.000240601
-2.63608e-06
0.000241154
-2.85095e-06
0.000241753
-3.08534e-06
0.000242401
-3.34103e-06
0.000243102
-3.61996e-06
0.000243862
-3.92429e-06
0.000244686
-4.2564e-06
0.00024558
-4.61896e-06
0.000246549
-5.01489e-06
0.000247601
-5.44747e-06
0.000248743
-5.92035e-06
0.000249983
-6.4376e-06
0.000251331
-7.00378e-06
0.000252797
-7.62397e-06
0.000254392
-8.30392e-06
0.000256127
-9.05006e-06
0.000258016
-9.86968e-06
0.000260075
-1.0771e-05
0.000262319
-1.17635e-05
0.000264767
-1.28576e-05
0.000267439
-1.40656e-05
0.000270358
-1.54014e-05
0.000273549
-1.68809e-05
0.00027704
-1.85226e-05
0.000280863
-2.03479e-05
0.000285054
-2.23816e-05
0.000289652
-2.46527e-05
0.000294703
-2.71952e-05
0.000300258
-3.00491e-05
0.000306375
-3.32621e-05
0.000313119
-3.68907e-05
0.000320566
-4.10026e-05
0.000328802
-4.56795e-05
0.000337924
-5.10202e-05
0.000348045
-5.7146e-05
0.000359292
-6.42042e-05
0.000371817
-7.23808e-05
0.00038578
-8.19009e-05
0.000401382
-9.30595e-05
0.000418827
-0.000106212
0.000438364
-0.000121837
0.000460235
-0.000140524
0.000484714
-0.000163067
0.00051202
-0.000190476
0.000542328
-0.000224119
0.000575586
-0.000265772
0.000611422
-0.000317849
0.000648609
-0.000383546
0.000684738
-0.000467154
0.000713541
-0.00057444
0.000725481
-0.000712327
0.000683083
-0.000890915
0.000543955
-0.00111037
-0.00142147
6.69205e-05
-0.000142736
0.00015197
-0.000194152
0.000250006
-0.000245432
0.000358385
-0.000296816
0.000471644
-0.00032915
0.000583569
-0.000324589
0.000679827
-0.000263315
0.000746033
-0.000148364
0.000784414
-3.56885e-06
0.000811144
0.000172666
0.000809842
0.00038969
0.000773762
0.000566188
0.000713367
0.000654851
0.000635833
0.00065879
0.00055764
0.000585016
0.000494006
0.000475174
0.000443698
0.000377264
0.000400825
0.000301132
0.000362175
0.000243899
0.000327316
0.000201299
0.000296927
0.000169122
0.000271251
0.000144099
0.000249797
0.000124056
0.000231766
0.000107646
0.000216419
9.40007e-05
0.000203195
8.25089e-05
0.000191687
7.27193e-05
0.000181595
6.42888e-05
0.000172697
5.69541e-05
0.000164823
5.05111e-05
0.000157842
4.47992e-05
0.000151652
3.96899e-05
0.000146173
3.50794e-05
0.000141345
3.08836e-05
0.00013712
2.70303e-05
0.000133457
2.34568e-05
0.000130321
2.01157e-05
0.000127683
1.69731e-05
0.000125522
1.40033e-05
0.000123819
1.11853e-05
0.000122556
8.50183e-06
0.00012172
5.94031e-06
0.000121294
3.49224e-06
0.000121264
1.1531e-06
0.000121613
-1.07805e-06
0.000122326
-3.19913e-06
0.000123385
-5.20569e-06
0.000124771
-7.09433e-06
0.000126463
-8.86012e-06
0.00012844
-1.04974e-05
0.000130678
-1.20006e-05
0.000133152
-1.33649e-05
0.000135835
-1.45863e-05
0.000138702
-1.56621e-05
0.000141726
-1.65908e-05
0.000144879
-1.73728e-05
0.000148135
-1.80098e-05
0.000151467
-1.85052e-05
0.000154851
-1.88641e-05
0.000158263
-1.90925e-05
0.000161681
-1.91981e-05
0.000165084
-1.91891e-05
0.000168454
-1.90751e-05
0.000171774
-1.88656e-05
0.00017503
-1.85709e-05
0.000178208
-1.82012e-05
0.000181299
-1.77665e-05
0.000184293
-1.72768e-05
0.000187183
-1.67415e-05
0.000189964
-1.61697e-05
0.000192633
-1.55697e-05
0.000195185
-1.49492e-05
0.000197621
-1.43154e-05
0.00019994
-1.36746e-05
0.000202143
-1.30323e-05
0.000204231
-1.23936e-05
0.000206207
-1.17626e-05
0.000208073
-1.11431e-05
0.000209833
-1.0538e-05
0.00021149
-9.94973e-06
0.000213048
-9.38041e-06
0.000214512
-8.83151e-06
0.000215885
-8.30418e-06
0.000217171
-7.7992e-06
0.000218376
-7.31705e-06
0.000219503
-6.85792e-06
0.000220556
-6.42181e-06
0.000221539
-6.00851e-06
0.000222457
-5.61766e-06
0.000223314
-5.24876e-06
0.000224112
-4.90123e-06
0.000224856
-4.57438e-06
0.00022555
-4.26749e-06
0.000226195
-3.97977e-06
0.000226797
-3.71043e-06
0.000227357
-3.45866e-06
0.000227878
-3.22364e-06
0.000228364
-3.00454e-06
0.000228816
-2.80057e-06
0.000229237
-2.61094e-06
0.00022963
-2.43491e-06
0.000229995
-2.27174e-06
0.000230337
-2.12072e-06
0.000230655
-1.9812e-06
0.000230953
-1.85254e-06
0.000231232
-1.73414e-06
0.000231493
-1.62544e-06
0.000231738
-1.52591e-06
0.000231968
-1.43507e-06
0.000232185
-1.35246e-06
0.000232389
-1.27767e-06
0.000232583
-1.2103e-06
0.000232767
-1.15003e-06
0.000232943
-1.09653e-06
0.000233111
-1.04952e-06
0.000233272
-1.00877e-06
0.000233428
-9.74054e-07
0.000233579
-9.452e-07
0.000233726
-9.22056e-07
0.00023387
-9.04516e-07
0.000234013
-8.92493e-07
0.000234154
-8.85944e-07
0.000234295
-8.84851e-07
0.000234437
-8.89224e-07
0.00023458
-8.99106e-07
0.000234726
-9.14569e-07
0.000234875
-9.35738e-07
0.000235028
-9.6276e-07
0.000235186
-9.95827e-07
0.000235351
-1.03516e-06
0.000235523
-1.08104e-06
0.000235703
-1.13376e-06
0.000235893
-1.19368e-06
0.000236093
-1.26122e-06
0.000236305
-1.33682e-06
0.000236531
-1.421e-06
0.000236771
-1.51432e-06
0.000237027
-1.61743e-06
0.000237302
-1.73102e-06
0.000237596
-1.8559e-06
0.000237911
-1.99289e-06
0.000238251
-2.14297e-06
0.000238616
-2.30718e-06
0.000239009
-2.48668e-06
0.000239433
-2.68273e-06
0.00023989
-2.89675e-06
0.000240385
-3.13027e-06
0.000240919
-3.38501e-06
0.000241496
-3.66284e-06
0.000242121
-3.96584e-06
0.000242797
-4.29629e-06
0.00024353
-4.65672e-06
0.000244323
-5.04996e-06
0.000245183
-5.47908e-06
0.000246116
-5.94754e-06
0.000247128
-6.45916e-06
0.000248226
-7.01821e-06
0.000249417
-7.62942e-06
0.000250712
-8.2981e-06
0.000252118
-9.03019e-06
0.000253646
-9.83232e-06
0.000255308
-1.0712e-05
0.000257116
-1.16776e-05
0.000259084
-1.27387e-05
0.000261226
-1.3906e-05
0.000263561
-1.51918e-05
0.000266105
-1.661e-05
0.00026888
-1.81765e-05
0.000271909
-1.99095e-05
0.000275216
-2.183e-05
0.000278831
-2.39623e-05
0.000282783
-2.63343e-05
0.000287109
-2.89786e-05
0.000291847
-3.19333e-05
0.000297041
-3.52432e-05
0.00030274
-3.89608e-05
0.000308998
-4.31484e-05
0.000315875
-4.78804e-05
0.000323441
-5.32452e-05
0.000331771
-5.93498e-05
0.000340947
-6.63228e-05
0.000351065
-7.43218e-05
0.000362221
-8.35372e-05
0.000374529
-9.4208e-05
0.000388091
-0.000106622
0.000403028
-0.000121149
0.000419426
-0.000138236
0.000437368
-0.000158465
0.000456848
-0.000182548
0.000477782
-0.00021141
0.000499856
-0.000246193
0.000522452
-0.000288367
0.000544344
-0.000339741
0.000563351
-0.000402553
0.000575643
-0.000479446
0.00057447