/*--------------------------------*- C++ -*----------------------------------*\
  =========                 |
  \\      /  F ield         | OpenFOAM: The Open Source CFD Toolbox
   \\    /   O peration     | Website:  https://openfoam.org
    \\  /    A nd           | Version:  dev
     \\/     M anipulation  |
\*---------------------------------------------------------------------------*/
FoamFile
{
    version     2.0;
    format      ascii;
    class       volVectorField;
    location    "19";
    object      U;
}
// * * * * * * * * * * * * * * * * * * * * * * * * * * * * * * * * * * * * * //

dimensions      [0 1 -1 0 0 0 0];

internalField   nonuniform List<vector> 
8000
(
(0.0997546 -1.7853e-05 0)
(0.100101 -0.000177215 0)
(0.100072 -0.00038402 0)
(0.0998555 -8.18869e-05 0)
(0.0998971 -6.48904e-05 0)
(0.100729 -0.000669501 0)
(0.100661 -0.00159295 0)
(0.0990065 -0.000532967 0)
(0.100362 -0.000146101 0)
(0.101794 -0.00121321 0)
(0.101927 -0.00317381 0)
(0.0979573 -0.00147193 0)
(0.101072 -0.000208492 0)
(0.103271 -0.00155115 0)
(0.103936 -0.00462749 0)
(0.0975523 -0.0023895 0)
(0.102055 -0.000128482 0)
(0.105025 -0.0013895 0)
(0.106487 -0.00531567 0)
(0.0982696 -0.00305586 0)
(0.102776 0.000136015 0)
(0.106732 -0.00042839 0)
(0.10918 -0.00462679 0)
(0.100491 -0.00270439 0)
(0.102798 0.000503324 0)
(0.107829 0.00147942 0)
(0.111421 -0.00213659 0)
(0.104013 -0.00039588 0)
(0.101567 0.00114591 0)
(0.107664 0.00414796 0)
(0.112253 0.00238129 0)
(0.107818 0.00434221 0)
(0.0984034 0.00205823 0)
(0.105607 0.00724127 0)
(0.110889 0.00849086 0)
(0.1099 0.0114312 0)
(0.0929629 0.00322863 0)
(0.101155 0.0103107 0)
(0.106775 0.0151828 0)
(0.108802 0.0201807 0)
(0.0852767 0.00453628 0)
(0.0941081 0.0128396 0)
(0.0997426 0.0209983 0)
(0.10339 0.028941 0)
(0.0758453 0.00571365 0)
(0.0849054 0.0143802 0)
(0.0902843 0.0245819 0)
(0.0940481 0.03521 0)
(0.0654175 0.00647574 0)
(0.0744346 0.0147039 0)
(0.0793745 0.0255299 0)
(0.0825156 0.0371583 0)
(0.0550534 0.00666829 0)
(0.064147 0.0139533 0)
(0.0685353 0.0241843 0)
(0.0706008 0.0349801 0)
(0.0454007 0.0062482 0)
(0.0552002 0.0125493 0)
(0.0591964 0.0213996 0)
(0.0602987 0.030392 0)
(0.0368032 0.00517429 0)
(0.0477107 0.0107161 0)
(0.0515275 0.017961 0)
(0.0522246 0.0251322 0)
(0.0299744 0.00359619 0)
(0.0415347 0.00847348 0)
(0.0452975 0.0143351 0)
(0.0459635 0.0201047 0)
(0.0252834 0.00201293 0)
(0.0364706 0.00602906 0)
(0.0401432 0.0108035 0)
(0.0408972 0.0155984 0)
(0.0224397 0.000921691 0)
(0.0324472 0.00392326 0)
(0.0358297 0.00779757 0)
(0.0366051 0.0118959 0)
(0.0207848 0.000409786 0)
(0.0293415 0.00256818 0)
(0.032207 0.00568995 0)
(0.0328585 0.00922648 0)
(0.0196861 0.000279034 0)
(0.0269159 0.00194433 0)
(0.0291659 0.0044789 0)
(0.0295936 0.00751626 0)
(0.0187357 0.000315372 0)
(0.0249308 0.00176434 0)
(0.0266175 0.0038637 0)
(0.0268111 0.00644916 0)
(0.017771 0.000372021 0)
(0.0232209 0.00173174 0)
(0.024468 0.00351013 0)
(0.0244736 0.00570394 0)
(0.016778 0.000395496 0)
(0.0216971 0.00168785 0)
(0.0226273 0.0032231 0)
(0.0225075 0.00509648 0)
(0.0158007 0.00039154 0)
(0.0203261 0.00160176 0)
(0.021031 0.00294518 0)
(0.0208389 0.00455944 0)
(0.0148717 0.000374525 0)
(0.0190933 0.00149013 0)
(0.0196361 0.00267586 0)
(0.0194096 0.00407557 0)
(0.014005 0.000351907 0)
(0.0179863 0.00136939 0)
(0.018412 0.00242135 0)
(0.0181759 0.00363945 0)
(0.0132057 0.000326857 0)
(0.0169933 0.0012481 0)
(0.0173353 0.00218408 0)
(0.0171038 0.00324684 0)
(0.0124747 0.000301116 0)
(0.0161045 0.0011306 0)
(0.0163867 0.00196452 0)
(0.0161671 0.00289383 0)
(0.0118099 0.00027565 0)
(0.01531 0.00101902 0)
(0.0155497 0.00176211 0)
(0.0153451 0.00257622 0)
(0.0112092 0.000251134 0)
(0.0146022 0.000914585 0)
(0.0148112 0.0015761 0)
(0.0146219 0.00229001 0)
(0.0106673 0.000227334 0)
(0.0139726 0.000817022 0)
(0.0141596 0.00140486 0)
(0.0139846 0.00203111 0)
(0.0101832 0.000204591 0)
(0.0134154 0.000726306 0)
(0.0135853 0.00124705 0)
(0.013423 0.00179588 0)
(0.00975172 0.000183364 0)
(0.0129238 0.000642709 0)
(0.0130807 0.00110218 0)
(0.0129293 0.0015818 0)
(0.00936876 0.000163447 0)
(0.0124919 0.000565596 0)
(0.0126389 0.00096883 0)
(0.0124972 0.00138583 0)
(0.00903189 0.000144267 0)
(0.012115 0.000493413 0)
(0.0122548 0.000844403 0)
(0.0121217 0.00120414 0)
(0.00873889 0.000125631 0)
(0.0117897 0.000425016 0)
(0.011924 0.000726917 0)
(0.0117986 0.00103392 0)
(0.00848763 0.000107705 0)
(0.0115128 0.000360187 0)
(0.0116428 0.000615726 0)
(0.011524 0.000873903 0)
(0.00827603 9.06197e-05 0)
(0.0112814 0.000298968 0)
(0.011408 0.00051065 0)
(0.0112951 0.000723278 0)
(0.00810207 7.43024e-05 0)
(0.0110929 0.000241125 0)
(0.0112169 0.000411241 0)
(0.0111091 0.000581065 0)
(0.00796389 5.86392e-05 0)
(0.010945 0.000186252 0)
(0.0110671 0.000316874 0)
(0.0109641 0.00044627 0)
(0.00785986 4.35436e-05 0)
(0.0108355 0.000134014 0)
(0.0109563 0.000227046 0)
(0.0108578 0.000318125 0)
(0.0077885 2.9033e-05 0)
(0.0107624 8.42182e-05 0)
(0.0108826 0.000141423 0)
(0.0107886 0.000196104 0)
(0.00774842 1.51309e-05 0)
(0.0107239 3.67014e-05 0)
(0.0108442 5.97342e-05 0)
(0.0107547 7.98175e-05 0)
(0.00773805 1.74957e-06 0)
(0.0107184 -8.82014e-06 0)
(0.0108394 -1.81872e-05 0)
(0.0107545 -3.09377e-05 0)
(0.00775627 -1.12118e-05 0)
(0.0107445 -5.18853e-05 0)
(0.0108665 -9.20188e-05 0)
(0.0107862 -0.000135918 0)
(0.00780149 -2.34133e-05 0)
(0.0108001 -9.25178e-05 0)
(0.0109237 -0.000161663 0)
(0.0108482 -0.000234966 0)
(0.00787211 -3.49819e-05 0)
(0.0108836 -0.000130779 0)
(0.0110093 -0.000227154 0)
(0.0109387 -0.000328077 0)
(0.00796668 -4.58859e-05 0)
(0.0109933 -0.000166584 0)
(0.0111214 -0.000288358 0)
(0.0110559 -0.000415066 0)
(0.0080836 -5.60835e-05 0)
(0.0111271 -0.000199838 0)
(0.0112581 -0.000345131 0)
(0.011198 -0.000495724 0)
(0.00822124 -6.55336e-05 0)
(0.0112833 -0.000230452 0)
(0.0114176 -0.000397332 0)
(0.011363 -0.000569842 0)
(0.00837789 -7.41998e-05 0)
(0.0114599 -0.000258342 0)
(0.0115978 -0.000444829 0)
(0.011549 -0.000637226 0)
(0.00855177 -8.20513e-05 0)
(0.011655 -0.00028344 0)
(0.0117968 -0.000487512 0)
(0.0117538 -0.00069772 0)
(0.00874109 -8.90658e-05 0)
(0.0118664 -0.000305696 0)
(0.0120124 -0.000525305 0)
(0.0119753 -0.000751213 0)
(0.00894401 -9.52269e-05 0)
(0.0120922 -0.000325087 0)
(0.0122426 -0.000558173 0)
(0.0122115 -0.000797657 0)
(0.00915868 -0.000100528 0)
(0.0123303 -0.000341614 0)
(0.0124853 -0.000586124 0)
(0.0124601 -0.000837068 0)
(0.00938326 -0.000104972 0)
(0.0125788 -0.000355307 0)
(0.0127384 -0.000609216 0)
(0.012719 -0.000869533 0)
(0.00961594 -0.000108572 0)
(0.0128356 -0.000366226 0)
(0.0129998 -0.000627557 0)
(0.0129862 -0.000895208 0)
(0.00985494 -0.000111349 0)
(0.0130987 -0.000374455 0)
(0.0132676 -0.000641296 0)
(0.0132595 -0.000914313 0)
(0.0100986 -0.000113334 0)
(0.0133665 -0.000380106 0)
(0.0135399 -0.00065063 0)
(0.0135371 -0.000927131 0)
(0.0103452 -0.000114565 0)
(0.013637 -0.000383312 0)
(0.013815 -0.00065579 0)
(0.0138171 -0.000934003 0)
(0.0105932 -0.000115084 0)
(0.0139087 -0.000384225 0)
(0.014091 -0.000657038 0)
(0.0140977 -0.000935306 0)
(0.0108412 -0.000114942 0)
(0.01418 -0.000383011 0)
(0.0143664 -0.000654665 0)
(0.0143774 -0.000931465 0)
(0.011088 -0.000114191 0)
(0.0144495 -0.000379851 0)
(0.0146398 -0.000648985 0)
(0.0146547 -0.000922933 0)
(0.0113322 -0.000112888 0)
(0.0147158 -0.000374935 0)
(0.0149099 -0.000640323 0)
(0.0149283 -0.000910177 0)
(0.0115727 -0.000111093 0)
(0.014978 -0.000368454 0)
(0.0151755 -0.000629007 0)
(0.015197 -0.000893673 0)
(0.0118087 -0.000108864 0)
(0.0152348 -0.000360601 0)
(0.0154356 -0.000615369 0)
(0.0154598 -0.000873893 0)
(0.0120393 -0.000106259 0)
(0.0154855 -0.000351567 0)
(0.0156893 -0.000599734 0)
(0.0157158 -0.000851305 0)
(0.0122638 -0.000103335 0)
(0.0157294 -0.000341535 0)
(0.0159359 -0.000582417 0)
(0.0159643 -0.00082636 0)
(0.0124816 -0.000100146 0)
(0.0159657 -0.000330681 0)
(0.0161747 -0.00056372 0)
(0.0162047 -0.000799488 0)
(0.0126921 -9.6744e-05 0)
(0.0161941 -0.000319173 0)
(0.0164053 -0.000543929 0)
(0.0164366 -0.000771095 0)
(0.0128951 -9.31773e-05 0)
(0.016414 -0.000307166 0)
(0.0166272 -0.000523307 0)
(0.0166595 -0.00074156 0)
(0.0130902 -8.94916e-05 0)
(0.0166253 -0.000294804 0)
(0.0168403 -0.000502101 0)
(0.0168732 -0.000711229 0)
(0.0132772 -8.57269e-05 0)
(0.0168277 -0.000282217 0)
(0.0170443 -0.000480531 0)
(0.0170776 -0.000680415 0)
(0.0134561 -8.19202e-05 0)
(0.0170211 -0.000269522 0)
(0.0172391 -0.000458797 0)
(0.0172726 -0.000649402 0)
(0.0136267 -7.81038e-05 0)
(0.0172056 -0.000256825 0)
(0.0174248 -0.000437076 0)
(0.0174582 -0.000618439 0)
(0.0137892 -7.43068e-05 0)
(0.0173811 -0.000244218 0)
(0.0176013 -0.000415522 0)
(0.0176346 -0.000587743 0)
(0.0139436 -7.05541e-05 0)
(0.0175478 -0.000231779 0)
(0.0177689 -0.00039427 0)
(0.0178018 -0.000557501 0)
(0.01409 -6.68669e-05 0)
(0.0177058 -0.000219575 0)
(0.0179277 -0.000373431 0)
(0.0179601 -0.000527874 0)
(0.0142285 -6.3263e-05 0)
(0.0178553 -0.000207664 0)
(0.0180778 -0.000353103 0)
(0.0181097 -0.000498992 0)
(0.0143595 -5.97571e-05 0)
(0.0179965 -0.000196091 0)
(0.0182196 -0.000333362 0)
(0.0182508 -0.000470965 0)
(0.0144831 -5.63619e-05 0)
(0.0181297 -0.000184894 0)
(0.0183533 -0.00031427 0)
(0.0183837 -0.000443876 0)
(0.0145996 -5.30861e-05 0)
(0.0182552 -0.000174102 0)
(0.0184791 -0.000295876 0)
(0.0185087 -0.000417791 0)
(0.0147092 -4.9937e-05 0)
(0.0183733 -0.000163734 0)
(0.0185975 -0.000278213 0)
(0.0186263 -0.000392758 0)
(0.0148122 -4.69192e-05 0)
(0.0184843 -0.000153807 0)
(0.0187087 -0.000261306 0)
(0.0187366 -0.000368808 0)
(0.0149089 -4.40359e-05 0)
(0.0185884 -0.000144328 0)
(0.018813 -0.000245169 0)
(0.01884 -0.00034596 0)
(0.0149996 -4.12889e-05 0)
(0.0186861 -0.000135303 0)
(0.0189108 -0.000229807 0)
(0.0189369 -0.000324219 0)
(0.0150847 -3.86779e-05 0)
(0.0187776 -0.000126729 0)
(0.0190024 -0.000215219 0)
(0.0190276 -0.000303582 0)
(0.0151643 -3.62019e-05 0)
(0.0188632 -0.000118604 0)
(0.0190881 -0.000201397 0)
(0.0191125 -0.000284035 0)
(0.0152388 -3.38592e-05 0)
(0.0189434 -0.000110919 0)
(0.0191682 -0.000188328 0)
(0.0191918 -0.00026556 0)
(0.0153084 -3.1647e-05 0)
(0.0190183 -0.000103666 0)
(0.0192431 -0.000175996 0)
(0.0192658 -0.000248132 0)
(0.0153734 -2.95623e-05 0)
(0.0190882 -9.68325e-05 0)
(0.0193131 -0.00016438 0)
(0.0193349 -0.000231721 0)
(0.0154342 -2.76009e-05 0)
(0.0191536 -9.04058e-05 0)
(0.0193784 -0.000153457 0)
(0.0193994 -0.000216294 0)
(0.0154909 -2.57585e-05 0)
(0.0192145 -8.43716e-05 0)
(0.0194393 -0.000143203 0)
(0.0194596 -0.000201816 0)
(0.0155438 -2.40306e-05 0)
(0.0192714 -7.87147e-05 0)
(0.0194961 -0.000133592 0)
(0.0195157 -0.00018825 0)
(0.0155932 -2.24128e-05 0)
(0.0193245 -7.342e-05 0)
(0.0195491 -0.000124598 0)
(0.019568 -0.000175556 0)
(0.0156393 -2.09002e-05 0)
(0.019374 -6.84716e-05 0)
(0.0195986 -0.000116194 0)
(0.0196168 -0.000163696 0)
(0.0156822 -1.94881e-05 0)
(0.0194202 -6.38533e-05 0)
(0.0196446 -0.00010835 0)
(0.0196622 -0.000152632 0)
(0.0157222 -1.8172e-05 0)
(0.0194632 -5.95496e-05 0)
(0.0196876 -0.000101042 0)
(0.0197045 -0.000142324 0)
(0.0157596 -1.69466e-05 0)
(0.0195033 -5.55448e-05 0)
(0.0197276 -9.42421e-05 0)
(0.019744 -0.000132734 0)
(0.0157944 -1.58078e-05 0)
(0.0195408 -5.18236e-05 0)
(0.019765 -8.79247e-05 0)
(0.0197808 -0.000123827 0)
(0.0158269 -1.47507e-05 0)
(0.0195757 -4.83716e-05 0)
(0.0197998 -8.20647e-05 0)
(0.0198151 -0.000115565 0)
(0.0158573 -1.37712e-05 0)
(0.0196084 -4.51744e-05 0)
(0.0198324 -7.66379e-05 0)
(0.0198472 -0.000107915 0)
(0.0158856 -1.28653e-05 0)
(0.0196388 -4.22189e-05 0)
(0.0198627 -7.16214e-05 0)
(0.0198771 -0.000100843 0)
(0.0159121 -1.20292e-05 0)
(0.0196673 -3.94916e-05 0)
(0.0198911 -6.69926e-05 0)
(0.019905 -9.43199e-05 0)
(0.0159369 -1.12589e-05 0)
(0.019694 -3.69806e-05 0)
(0.0199177 -6.27312e-05 0)
(0.0199312 -8.83143e-05 0)
(0.0159602 -1.05511e-05 0)
(0.019719 -3.46748e-05 0)
(0.0199426 -5.88175e-05 0)
(0.0199557 -8.27988e-05 0)
(0.015982 -9.9017e-06 0)
(0.0197425 -3.25624e-05 0)
(0.019966 -5.52333e-05 0)
(0.0199787 -7.77474e-05 0)
(0.0160024 -9.30852e-06 0)
(0.0197645 -3.06337e-05 0)
(0.0199879 -5.19603e-05 0)
(0.0200003 -7.31357e-05 0)
(0.0160217 -8.76821e-06 0)
(0.0197853 -2.88798e-05 0)
(0.0200086 -4.89838e-05 0)
(0.0200206 -6.8941e-05 0)
(0.0160399 -8.27865e-06 0)
(0.0198049 -2.72917e-05 0)
(0.0200281 -4.62882e-05 0)
(0.0200398 -6.51426e-05 0)
(0.0160572 -7.83685e-06 0)
(0.0198234 -2.58611e-05 0)
(0.0200465 -4.38609e-05 0)
(0.0200579 -6.17216e-05 0)
(0.0160735 -7.44057e-06 0)
(0.0198411 -2.45814e-05 0)
(0.020064 -4.16889e-05 0)
(0.0200751 -5.86603e-05 0)
(0.0160891 -7.08819e-06 0)
(0.0198578 -2.34458e-05 0)
(0.0200807 -3.97615e-05 0)
(0.0200915 -5.59434e-05 0)
(0.0161039 -6.77775e-06 0)
(0.0198738 -2.24488e-05 0)
(0.0200966 -3.80685e-05 0)
(0.0201071 -5.35567e-05 0)
(0.0161182 -6.50748e-06 0)
(0.0198892 -2.1585e-05 0)
(0.0201119 -3.66017e-05 0)
(0.0201221 -5.14881e-05 0)
(0.0161319 -6.27634e-06 0)
(0.0199041 -2.08502e-05 0)
(0.0201266 -3.53537e-05 0)
(0.0201366 -4.97272e-05 0)
(0.0161452 -6.08329e-06 0)
(0.0199184 -2.02408e-05 0)
(0.0201408 -3.43178e-05 0)
(0.0201505 -4.82649e-05 0)
(0.0161582 -5.9271e-06 0)
(0.0199324 -1.97536e-05 0)
(0.0201547 -3.34891e-05 0)
(0.0201641 -4.70944e-05 0)
(0.0161708 -5.80674e-06 0)
(0.0199461 -1.93863e-05 0)
(0.0201682 -3.28638e-05 0)
(0.0201774 -4.62091e-05 0)
(0.0161833 -5.72173e-06 0)
(0.0199595 -1.91373e-05 0)
(0.0201815 -3.24388e-05 0)
(0.0201905 -4.56059e-05 0)
(0.0161956 -5.67192e-06 0)
(0.0199729 -1.90059e-05 0)
(0.0201947 -3.22127e-05 0)
(0.0202035 -4.52822e-05 0)
(0.0162079 -5.65769e-06 0)
(0.0199862 -1.89918e-05 0)
(0.0202079 -3.2185e-05 0)
(0.0202164 -4.52368e-05 0)
(0.0162202 -5.67865e-06 0)
(0.0199995 -1.90954e-05 0)
(0.020221 -3.23566e-05 0)
(0.0202293 -4.54713e-05 0)
(0.0162326 -5.73549e-06 0)
(0.0200129 -1.93179e-05 0)
(0.0202343 -3.27285e-05 0)
(0.0202423 -4.59874e-05 0)
(0.0162451 -5.82781e-06 0)
(0.0200266 -1.96603e-05 0)
(0.0202477 -3.33042e-05 0)
(0.0202555 -4.67894e-05 0)
(0.016258 -5.95666e-06 0)
(0.0200405 -2.01255e-05 0)
(0.0202614 -3.40874e-05 0)
(0.0202689 -4.7883e-05 0)
(0.0162712 -6.12312e-06 0)
(0.0200548 -2.0717e-05 0)
(0.0202755 -3.50846e-05 0)
(0.0202827 -4.92771e-05 0)
(0.0162847 -6.32832e-06 0)
(0.0200696 -2.1439e-05 0)
(0.02029 -3.63024e-05 0)
(0.020297 -5.09807e-05 0)
(0.0162989 -6.57403e-06 0)
(0.0200849 -2.22968e-05 0)
(0.0203051 -3.77494e-05 0)
(0.0203117 -5.30057e-05 0)
(0.0163136 -6.86212e-06 0)
(0.0201008 -2.32963e-05 0)
(0.0203208 -3.94354e-05 0)
(0.0203271 -5.53662e-05 0)
(0.0163289 -7.19374e-06 0)
(0.0201175 -2.44437e-05 0)
(0.0203372 -4.13727e-05 0)
(0.0203432 -5.80785e-05 0)
(0.0163451 -7.57197e-06 0)
(0.0201351 -2.5748e-05 0)
(0.0203544 -4.35739e-05 0)
(0.0203601 -6.11606e-05 0)
(0.0163622 -7.99896e-06 0)
(0.0201536 -2.72174e-05 0)
(0.0203726 -4.60541e-05 0)
(0.0203779 -6.46337e-05 0)
(0.0163803 -8.47815e-06 0)
(0.0201733 -2.88625e-05 0)
(0.0203919 -4.88303e-05 0)
(0.0203968 -6.85214e-05 0)
(0.0163995 -9.01286e-06 0)
(0.0201941 -3.06943e-05 0)
(0.0204123 -5.19217e-05 0)
(0.0204168 -7.28504e-05 0)
(0.0164199 -9.60671e-06 0)
(0.0202163 -3.27254e-05 0)
(0.020434 -5.53492e-05 0)
(0.0204381 -7.76499e-05 0)
(0.0164417 -1.02643e-05 0)
(0.02024 -3.49701e-05 0)
(0.0204572 -5.91364e-05 0)
(0.0204608 -8.29532e-05 0)
(0.016465 -1.09899e-05 0)
(0.0202653 -3.74437e-05 0)
(0.020482 -6.33098e-05 0)
(0.0204851 -8.87972e-05 0)
(0.01649 -1.17887e-05 0)
(0.0202924 -4.01638e-05 0)
(0.0205086 -6.78984e-05 0)
(0.0205111 -9.52223e-05 0)
(0.0165169 -1.26659e-05 0)
(0.0203216 -4.31494e-05 0)
(0.0205371 -7.2935e-05 0)
(0.0205391 -0.000102273 0)
(0.0165458 -1.36288e-05 0)
(0.0203529 -4.64222e-05 0)
(0.0205677 -7.84544e-05 0)
(0.0205691 -0.000109999 0)
(0.0165769 -1.46843e-05 0)
(0.0203866 -5.00058e-05 0)
(0.0206007 -8.44961e-05 0)
(0.0206013 -0.000118456 0)
(0.0166104 -1.58401e-05 0)
(0.0204229 -5.39257e-05 0)
(0.0206362 -9.11037e-05 0)
(0.0206361 -0.000127702 0)
(0.0166465 -1.71051e-05 0)
(0.020462 -5.82105e-05 0)
(0.0206745 -9.83244e-05 0)
(0.0206736 -0.000137805 0)
(0.0166856 -1.84887e-05 0)
(0.0205043 -6.2892e-05 0)
(0.0207158 -0.000106212 0)
(0.020714 -0.000148838 0)
(0.0167278 -2.00016e-05 0)
(0.0205499 -6.8005e-05 0)
(0.0207604 -0.000114823 0)
(0.0207577 -0.000160883 0)
(0.0167734 -2.16556e-05 0)
(0.0205993 -7.35885e-05 0)
(0.0208087 -0.000124224 0)
(0.0208049 -0.000174028 0)
(0.0168229 -2.34638e-05 0)
(0.0206528 -7.96849e-05 0)
(0.0208609 -0.000134485 0)
(0.020856 -0.000188372 0)
(0.0168765 -2.54412e-05 0)
(0.0207106 -8.63421e-05 0)
(0.0209174 -0.000145684 0)
(0.0209112 -0.000204025 0)
(0.0169345 -2.76035e-05 0)
(0.0207733 -9.36122e-05 0)
(0.0209786 -0.000157911 0)
(0.0209711 -0.000221108 0)
(0.0169976 -2.99693e-05 0)
(0.0208412 -0.000101554 0)
(0.0210449 -0.00017126 0)
(0.0210359 -0.000239754 0)
(0.0170659 -3.2558e-05 0)
(0.0209149 -0.000110232 0)
(0.0211168 -0.000185839 0)
(0.0211062 -0.000260111 0)
(0.0171402 -3.53925e-05 0)
(0.0209948 -0.000119718 0)
(0.0211948 -0.000201768 0)
(0.0211824 -0.000282345 0)
(0.0172209 -3.84981e-05 0)
(0.0210816 -0.000130093 0)
(0.0212795 -0.000219179 0)
(0.0212651 -0.000306639 0)
(0.0173087 -4.19028e-05 0)
(0.0211759 -0.000141446 0)
(0.0213714 -0.000238221 0)
(0.0213548 -0.000333196 0)
(0.0174041 -4.56382e-05 0)
(0.0212783 -0.000153879 0)
(0.0214712 -0.00025906 0)
(0.0214523 -0.000362246 0)
(0.0175081 -4.97411e-05 0)
(0.0213897 -0.000167505 0)
(0.0215798 -0.000281879 0)
(0.0215582 -0.000394042 0)
(0.0176213 -5.42512e-05 0)
(0.0215109 -0.00018245 0)
(0.0216978 -0.000306889 0)
(0.0216734 -0.000428871 0)
(0.0177447 -5.92148e-05 0)
(0.0216428 -0.000198856 0)
(0.0218262 -0.000334321 0)
(0.0217986 -0.000467054 0)
(0.0178793 -6.46838e-05 0)
(0.0217865 -0.000216887 0)
(0.021966 -0.000364441 0)
(0.0219349 -0.000508951 0)
(0.0180262 -7.0717e-05 0)
(0.021943 -0.000236722 0)
(0.0221183 -0.000397545 0)
(0.0220832 -0.000554969 0)
(0.0181868 -7.73817e-05 0)
(0.0221138 -0.00025857 0)
(0.0222843 -0.000433971 0)
(0.0222448 -0.000605571 0)
(0.0183623 -8.47553e-05 0)
(0.0223001 -0.000282668 0)
(0.0224653 -0.000474102 0)
(0.022421 -0.000661277 0)
(0.0185543 -9.29267e-05 0)
(0.0225037 -0.000309284 0)
(0.0226629 -0.000518376 0)
(0.0226132 -0.000722685 0)
(0.0187647 -0.000101999 0)
(0.0227261 -0.000338728 0)
(0.0228788 -0.000567293 0)
(0.0228229 -0.000790473 0)
(0.0189954 -0.00011209 0)
(0.0229695 -0.000371356 0)
(0.0231148 -0.000621427 0)
(0.0230521 -0.000865419 0)
(0.0192486 -0.000123338 0)
(0.023236 -0.000407578 0)
(0.0233729 -0.000681439 0)
(0.0233025 -0.000948417 0)
(0.0195269 -0.000135903 0)
(0.0235281 -0.000447869 0)
(0.0236557 -0.00074809 0)
(0.0235766 -0.0010405 0)
(0.0198332 -0.000149971 0)
(0.0238486 -0.000492781 0)
(0.0239657 -0.000822266 0)
(0.0238768 -0.00114286 0)
(0.0201707 -0.000165764 0)
(0.0242008 -0.00054296 0)
(0.0243059 -0.000904998 0)
(0.0242058 -0.00125689 0)
(0.0205432 -0.00018354 0)
(0.0245882 -0.000599164 0)
(0.0246798 -0.000997491 0)
(0.024567 -0.00138421 0)
(0.0209551 -0.000203607 0)
(0.025015 -0.000662293 0)
(0.0250912 -0.00110116 0)
(0.0249638 -0.00152672 0)
(0.0214112 -0.000226331 0)
(0.025486 -0.000733413 0)
(0.0255446 -0.00121767 0)
(0.0254004 -0.00168668 0)
(0.0219174 -0.000252156 0)
(0.0260065 -0.000813767 0)
(0.026045 -0.00134904 0)
(0.0258814 -0.00186673 0)
(0.0224803 -0.000281618 0)
(0.0265828 -0.000904856 0)
(0.0265982 -0.00149766 0)
(0.0264121 -0.00207005 0)
(0.0231078 -0.000315361 0)
(0.0272223 -0.00100849 0)
(0.027211 -0.00166641 0)
(0.0269988 -0.00230045 0)
(0.023809 -0.000354187 0)
(0.0279335 -0.00112689 0)
(0.0278912 -0.00185878 0)
(0.0276483 -0.00256251 0)
(0.0245947 -0.00039901 0)
(0.0287263 -0.00126269 0)
(0.028648 -0.002079 0)
(0.0283689 -0.00286182 0)
(0.0254779 -0.000451185 0)
(0.0296126 -0.00141936 0)
(0.0294921 -0.00233229 0)
(0.0291701 -0.0032052 0)
(0.0264739 -0.000511785 0)
(0.0306065 -0.00160063 0)
(0.0304361 -0.00262517 0)
(0.0300628 -0.00360108 0)
(0.0276016 -0.000583646 0)
(0.0317246 -0.00181248 0)
(0.0314953 -0.00296568 0)
(0.0310601 -0.00405998 0)
(0.0288827 -0.000667188 0)
(0.0329877 -0.00205988 0)
(0.0326876 -0.0033641 0)
(0.0321771 -0.00459503 0)
(0.0303461 -0.000768828 0)
(0.0344199 -0.00235404 0)
(0.034035 -0.00383325 0)
(0.033432 -0.0052231 0)
(0.0320246 -0.000887487 0)
(0.0360522 -0.00270175 0)
(0.0355639 -0.00439029 0)
(0.0348461 -0.00596536 0)
(0.0339621 -0.00103473 0)
(0.0379223 -0.00312245 0)
(0.0373068 -0.00505697 0)
(0.0364451 -0.00684986 0)
(0.0362118 -0.00121038 0)
(0.0400779 -0.00362944 0)
(0.0393041 -0.00586296 0)
(0.0382593 -0.00791269 0)
(0.038844 -0.00143125 0)
(0.0425798 -0.00425467 0)
(0.0416058 -0.0068472 0)
(0.0403254 -0.0092024 0)
(0.0419477 -0.0017025 0)
(0.0455069 -0.00502739 0)
(0.0442753 -0.00806412 0)
(0.0426867 -0.0107838 0)
(0.045645 -0.00205029 0)
(0.0489622 -0.00600433 0)
(0.0473928 -0.009588 0)
(0.045395 -0.0127457 0)
(0.0500901 -0.00249327 0)
(0.0530834 -0.00725125 0)
(0.0510622 -0.0115254 0)
(0.048511 -0.0152107 0)
(0.0555269 -0.00307442 0)
(0.0580583 -0.00887624 0)
(0.0554145 -0.0140287 0)
(0.0521036 -0.0183522 0)
(0.06219 -0.00385202 0)
(0.0641435 -0.0110423 0)
(0.0606366 -0.017323 0)
(0.0562522 -0.0224154 0)
(0.0707754 -0.00489621 0)
(0.0717177 -0.0139494 0)
(0.0669237 -0.0217438 0)
(0.0610216 -0.0277687 0)
(0.0810402 -0.00636714 0)
(0.0812392 -0.0180681 0)
(0.0747456 -0.0278094 0)
(0.0665322 -0.0349198 0)
(0.0966759 -0.00849482 0)
(0.0937999 -0.0236856 0)
(0.0840962 -0.0363046 0)
(0.0725834 -0.0448024 0)
(0.110644 -0.0109747 0)
(0.108954 -0.031694 0)
(0.0972476 -0.0484751 0)
(0.0801798 -0.0583983 0)
(0.146787 -0.0166194 0)
(0.134776 -0.0449035 0)
(0.111637 -0.066633 0)
(0.0852333 -0.079109 0)
(0.158184 -0.017503 0)
(0.152251 -0.0532419 0)
(0.135597 -0.0886791 0)
(0.104934 -0.107098 0)
(0.247354 -0.0343709 0)
(0.226418 -0.098872 0)
(0.177135 -0.149469 0)
(0.102152 -0.169259 0)
(0.00616237 -0.00105757 0)
(0.0110643 -0.00372408 0)
(0.0193937 -0.00668217 0)
(0.0298152 -0.00978564 0)
(0.0413348 -0.0120583 0)
(0.0528355 -0.0121582 0)
(0.0631612 -0.00892858 0)
(0.0719896 -0.00195299 0)
(0.0798545 0.00809666 0)
(0.0869808 0.0213381 0)
(0.0893974 0.0342336 0)
(0.0858425 0.043454 0)
(0.0776721 0.0476464 0)
(0.0675928 0.0457808 0)
(0.0577944 0.0395995 0)
(0.0500293 0.0323055 0)
(0.0442081 0.0257339 0)
(0.0395096 0.0202359 0)
(0.035465 0.015905 0)
(0.0318622 0.0127452 0)
(0.0286815 0.0105591 0)
(0.0259625 0.00902241 0)
(0.0236879 0.00785553 0)
(0.0217906 0.00689872 0)
(0.0201948 0.00608182 0)
(0.0188372 0.00537438 0)
(0.0176694 0.00475837 0)
(0.0166557 0.00421939 0)
(0.0157694 0.00374503 0)
(0.0149904 0.00332484 0)
(0.0143037 0.00295024 0)
(0.0136973 0.00261396 0)
(0.013162 0.00231002 0)
(0.0126905 0.00203372 0)
(0.0122773 0.00178057 0)
(0.0119181 0.00154608 0)
(0.0116089 0.00132681 0)
(0.0113463 0.00112079 0)
(0.0111276 0.0009267 0)
(0.0109507 0.000743175 0)
(0.0108137 0.000568974 0)
(0.0107148 0.000403158 0)
(0.0106526 0.000245082 0)
(0.0106253 9.43438e-05 0)
(0.0106316 -4.91923e-05 0)
(0.0106698 -0.000185358 0)
(0.0107384 -0.000313922 0)
(0.0108358 -0.000434815 0)
(0.0109601 -0.000547776 0)
(0.0111096 -0.000652509 0)
(0.0112822 -0.000748715 0)
(0.011476 -0.000836126 0)
(0.0116888 -0.000914523 0)
(0.0119185 -0.000983753 0)
(0.0121627 -0.00104375 0)
(0.0124194 -0.00109453 0)
(0.0126862 -0.00113621 0)
(0.012961 -0.00116899 0)
(0.0132418 -0.00119318 0)
(0.0135264 -0.00120915 0)
(0.013813 -0.00121736 0)
(0.0140998 -0.00121831 0)
(0.0143851 -0.00121256 0)
(0.0146675 -0.00120072 0)
(0.0149457 -0.00118341 0)
(0.0152184 -0.00116125 0)
(0.0154847 -0.00113488 0)
(0.0157436 -0.0011049 0)
(0.0159946 -0.0010719 0)
(0.016237 -0.00103646 0)
(0.0164703 -0.000999108 0)
(0.0166943 -0.000960326 0)
(0.0169087 -0.00092057 0)
(0.0171135 -0.000880246 0)
(0.0173086 -0.000839719 0)
(0.017494 -0.000799308 0)
(0.01767 -0.000759295 0)
(0.0178365 -0.000719918 0)
(0.017994 -0.00068138 0)
(0.0181426 -0.000643848 0)
(0.0182827 -0.000607457 0)
(0.0184145 -0.000572315 0)
(0.0185384 -0.000538502 0)
(0.0186547 -0.000506076 0)
(0.0187637 -0.000475073 0)
(0.0188659 -0.000445515 0)
(0.0189615 -0.000417406 0)
(0.0190509 -0.000390738 0)
(0.0191345 -0.000365493 0)
(0.0192126 -0.000341644 0)
(0.0192854 -0.000319155 0)
(0.0193534 -0.000297988 0)
(0.0194168 -0.000278098 0)
(0.0194759 -0.000259437 0)
(0.019531 -0.000241958 0)
(0.0195823 -0.000225608 0)
(0.0196301 -0.000210336 0)
(0.0196746 -0.000196093 0)
(0.0197161 -0.000182826 0)
(0.0197548 -0.000170487 0)
(0.0197908 -0.000159027 0)
(0.0198244 -0.000148401 0)
(0.0198558 -0.000138563 0)
(0.019885 -0.00012947 0)
(0.0199124 -0.000121084 0)
(0.019938 -0.000113364 0)
(0.0199619 -0.000106274 0)
(0.0199844 -9.9782e-05 0)
(0.0200055 -9.38554e-05 0)
(0.0200253 -8.8465e-05 0)
(0.0200441 -8.35843e-05 0)
(0.0200618 -7.91879e-05 0)
(0.0200786 -7.52542e-05 0)
(0.0200946 -7.17627e-05 0)
(0.0201098 -6.86949e-05 0)
(0.0201245 -6.60361e-05 0)
(0.0201386 -6.37716e-05 0)
(0.0201522 -6.18905e-05 0)
(0.0201655 -6.03835e-05 0)
(0.0201784 -5.92423e-05 0)
(0.0201912 -5.8463e-05 0)
(0.0202038 -5.80418e-05 0)
(0.0202164 -5.79776e-05 0)
(0.020229 -5.82718e-05 0)
(0.0202417 -5.89271e-05 0)
(0.0202545 -5.99485e-05 0)
(0.0202676 -6.13437e-05 0)
(0.0202811 -6.3123e-05 0)
(0.020295 -6.52989e-05 0)
(0.0203094 -6.78863e-05 0)
(0.0203243 -7.09032e-05 0)
(0.02034 -7.43696e-05 0)
(0.0203565 -7.83093e-05 0)
(0.0203739 -8.27493e-05 0)
(0.0203922 -8.77193e-05 0)
(0.0204117 -9.32535e-05 0)
(0.0204325 -9.93893e-05 0)
(0.0204546 -0.000106169 0)
(0.0204783 -0.000113639 0)
(0.0205036 -0.000121851 0)
(0.0205308 -0.000130863 0)
(0.02056 -0.000140736 0)
(0.0205914 -0.000151542 0)
(0.0206253 -0.000163355 0)
(0.0206617 -0.000176262 0)
(0.0207011 -0.000190354 0)
(0.0207436 -0.000205735 0)
(0.0207895 -0.000222519 0)
(0.0208391 -0.00024083 0)
(0.0208928 -0.000260808 0)
(0.020951 -0.000282604 0)
(0.021014 -0.000306389 0)
(0.0210822 -0.000332349 0)
(0.0211562 -0.000360693 0)
(0.0212364 -0.000391653 0)
(0.0213235 -0.000425485 0)
(0.021418 -0.000462477 0)
(0.0215207 -0.00050295 0)
(0.0216322 -0.000547262 0)
(0.0217535 -0.000595816 0)
(0.0218853 -0.000649064 0)
(0.0220288 -0.000707515 0)
(0.0221849 -0.000771746 0)
(0.022355 -0.000842408 0)
(0.0225404 -0.000920244 0)
(0.0227425 -0.0010061 0)
(0.0229631 -0.00110093 0)
(0.023204 -0.00120586 0)
(0.0234672 -0.00132214 0)
(0.023755 -0.00145126 0)
(0.0240701 -0.00159492 0)
(0.0244153 -0.00175511 0)
(0.0247938 -0.00193414 0)
(0.0252094 -0.00213476 0)
(0.0256662 -0.0023602 0)
(0.0261689 -0.00261429 0)
(0.0267228 -0.00290161 0)
(0.027334 -0.00322766 0)
(0.0280094 -0.00359911 0)
(0.0287569 -0.00402404 0)
(0.0295856 -0.00451239 0)
(0.0305058 -0.00507641 0)
(0.0315296 -0.00573136 0)
(0.0326705 -0.00649639 0)
(0.0339441 -0.00739577 0)
(0.035368 -0.00846045 0)
(0.0369621 -0.00973051 0)
(0.0387478 -0.0112581 0)
(0.0407483 -0.0131118 0)
(0.0429862 -0.0153831 0)
(0.0454805 -0.0181945 0)
(0.0482409 -0.021713 0)
(0.0512554 -0.0261666 0)
(0.0544707 -0.0318737 0)
(0.0577431 -0.0392688 0)
(0.0607861 -0.0490147 0)
(0.0629332 -0.0618866 0)
(0.0625918 -0.0798367 0)
(0.0600472 -0.103758 0)
(0.0178988 -0.144967 0)
(0.00408352 -0.011196 0)
(0.0094657 -0.0151599 0)
(0.017335 -0.018938 0)
(0.0261794 -0.0228234 0)
(0.0354688 -0.0254082 0)
(0.04508 -0.0250048 0)
(0.0543126 -0.0203027 0)
(0.0618566 -0.0118273 0)
(0.066215 -0.000717826 0)
(0.0689366 0.0144579 0)
(0.0711932 0.0332019 0)
(0.0698258 0.0475304 0)
(0.0652686 0.0543484 0)
(0.0584138 0.0542304 0)
(0.0510262 0.0477351 0)
(0.0447326 0.0386934 0)
(0.0401126 0.0307032 0)
(0.0362636 0.024351 0)
(0.0327893 0.0195315 0)
(0.0296199 0.0159874 0)
(0.0268047 0.0133874 0)
(0.0244004 0.0114166 0)
(0.0223906 0.00985168 0)
(0.020709 0.00856638 0)
(0.0192854 0.00749144 0)
(0.0180643 0.00658191 0)
(0.0170054 0.00580447 0)
(0.0160794 0.00513327 0)
(0.0152645 0.0045482 0)
(0.0145443 0.00403358 0)
(0.013906 0.003577 0)
(0.0133398 0.00316848 0)
(0.012838 0.00279991 0)
(0.0123946 0.00246476 0)
(0.0120052 0.00215731 0)
(0.0116659 0.00187239 0)
(0.0113735 0.00160616 0)
(0.0111252 0.00135597 0)
(0.0109188 0.0011198 0)
(0.0107527 0.000896006 0)
(0.0106254 0.000683194 0)
(0.0105354 0.000480292 0)
(0.0104815 0.000286559 0)
(0.0104623 0.000101593 0)
(0.0104766 -7.47083e-05 0)
(0.0105229 -0.000242183 0)
(0.0105998 -0.000400505 0)
(0.0107058 -0.000549475 0)
(0.0108391 -0.000688729 0)
(0.0109979 -0.000817848 0)
(0.0111802 -0.000936421 0)
(0.0113839 -0.00104408 0)
(0.0116069 -0.00114054 0)
(0.0118469 -0.00122558 0)
(0.0121014 -0.00129911 0)
(0.0123683 -0.00136115 0)
(0.0126452 -0.00141184 0)
(0.0129298 -0.00145145 0)
(0.01322 -0.00148035 0)
(0.0135135 -0.00149903 0)
(0.0138085 -0.00150805 0)
(0.0141031 -0.00150808 0)
(0.0143955 -0.00149984 0)
(0.0146844 -0.00148408 0)
(0.0149683 -0.00146159 0)
(0.0152461 -0.00143315 0)
(0.0155167 -0.00139957 0)
(0.0157793 -0.0013616 0)
(0.0160333 -0.00132 0)
(0.016278 -0.00127546 0)
(0.0165132 -0.00122864 0)
(0.0167385 -0.00118016 0)
(0.0169537 -0.00113056 0)
(0.0171589 -0.00108036 0)
(0.017354 -0.00102999 0)
(0.0175391 -0.000979851 0)
(0.0177144 -0.000930277 0)
(0.0178802 -0.000881558 0)
(0.0180366 -0.000833938 0)
(0.018184 -0.000787615 0)
(0.0183227 -0.000742752 0)
(0.018453 -0.000699472 0)
(0.0185754 -0.000657869 0)
(0.0186901 -0.000618008 0)
(0.0187975 -0.00057993 0)
(0.018898 -0.000543654 0)
(0.018992 -0.000509182 0)
(0.0190799 -0.0004765 0)
(0.0191619 -0.000445581 0)
(0.0192384 -0.000416389 0)
(0.0193097 -0.000388878 0)
(0.0193763 -0.000362997 0)
(0.0194382 -0.00033869 0)
(0.019496 -0.000315895 0)
(0.0195498 -0.000294552 0)
(0.0195998 -0.000274595 0)
(0.0196465 -0.000255963 0)
(0.0196899 -0.000238589 0)
(0.0197303 -0.000222413 0)
(0.019768 -0.000207372 0)
(0.019803 -0.000193406 0)
(0.0198357 -0.000180459 0)
(0.0198662 -0.000168475 0)
(0.0198947 -0.000157402 0)
(0.0199213 -0.00014719 0)
(0.0199461 -0.000137791 0)
(0.0199694 -0.000129162 0)
(0.0199912 -0.00012126 0)
(0.0200117 -0.000114048 0)
(0.0200309 -0.000107489 0)
(0.0200491 -0.00010155 0)
(0.0200663 -9.62006e-05 0)
(0.0200826 -9.14145e-05 0)
(0.0200981 -8.71665e-05 0)
(0.0201129 -8.34339e-05 0)
(0.0201271 -8.01984e-05 0)
(0.0201408 -7.74423e-05 0)
(0.020154 -7.51521e-05 0)
(0.0201668 -7.33159e-05 0)
(0.0201794 -7.19253e-05 0)
(0.0201918 -7.09732e-05 0)